 Entering Gaussian System, Link 0=/shared/gaussian/g16.b01/AVX2/g16/g16
 Initial command:
 /shared/gaussian/g16.b01/AVX2/g16/l1.exe "/scratch/marlene/SCRGAU.145954.Thymine6311-freq-solv-ES3/Gau-62232.inp" -scrdir="/scratch/marlene/SCRGAU.145954.Thymine6311-freq-solv-ES3/"
 Entering Link 1 = /shared/gaussian/g16.b01/AVX2/g16/l1.exe PID=     62233.
  
 Copyright (c) 1988-2017, Gaussian, Inc.  All Rights Reserved.
  
 This is part of the Gaussian(R) 16 program.  It is based on
 the Gaussian(R) 09 system (copyright 2009, Gaussian, Inc.),
 the Gaussian(R) 03 system (copyright 2003, Gaussian, Inc.),
 the Gaussian(R) 98 system (copyright 1998, Gaussian, Inc.),
 the Gaussian(R) 94 system (copyright 1995, Gaussian, Inc.),
 the Gaussian 92(TM) system (copyright 1992, Gaussian, Inc.),
 the Gaussian 90(TM) system (copyright 1990, Gaussian, Inc.),
 the Gaussian 88(TM) system (copyright 1988, Gaussian, Inc.),
 the Gaussian 86(TM) system (copyright 1986, Carnegie Mellon
 University), and the Gaussian 82(TM) system (copyright 1983,
 Carnegie Mellon University). Gaussian is a federally registered
 trademark of Gaussian, Inc.
  
 This software contains proprietary and confidential information,
 including trade secrets, belonging to Gaussian, Inc.
  
 This software is provided under written license and may be
 used, copied, transmitted, or stored only in accord with that
 written license.
  
 The following legend is applicable only to US Government
 contracts under FAR:
  
                    RESTRICTED RIGHTS LEGEND
  
 Use, reproduction and disclosure by the US Government is
 subject to restrictions as set forth in subparagraphs (a)
 and (c) of the Commercial Computer Software - Restricted
 Rights clause in FAR 52.227-19.
  
 Gaussian, Inc.
 340 Quinnipiac St., Bldg. 40, Wallingford CT 06492
  
  
 ---------------------------------------------------------------
 Warning -- This program may not be used in any manner that
 competes with the business of Gaussian, Inc. or will provide
 assistance to any competitor of Gaussian, Inc.  The licensee
 of this program is prohibited from giving any competitor of
 Gaussian, Inc. access to this program.  By using this program,
 the user acknowledges that Gaussian, Inc. is engaged in the
 business of creating and licensing software in the field of
 computational chemistry and represents and warrants to the
 licensee that it is not a competitor of Gaussian, Inc. and that
 it will not use this program in any manner prohibited above.
 ---------------------------------------------------------------
  

 Cite this work as:
 Gaussian 16, Revision B.01,
 M. J. Frisch, G. W. Trucks, H. B. Schlegel, G. E. Scuseria, 
 M. A. Robb, J. R. Cheeseman, G. Scalmani, V. Barone, 
 G. A. Petersson, H. Nakatsuji, X. Li, M. Caricato, A. V. Marenich, 
 J. Bloino, B. G. Janesko, R. Gomperts, B. Mennucci, H. P. Hratchian, 
 J. V. Ortiz, A. F. Izmaylov, J. L. Sonnenberg, D. Williams-Young, 
 F. Ding, F. Lipparini, F. Egidi, J. Goings, B. Peng, A. Petrone, 
 T. Henderson, D. Ranasinghe, V. G. Zakrzewski, J. Gao, N. Rega, 
 G. Zheng, W. Liang, M. Hada, M. Ehara, K. Toyota, R. Fukuda, 
 J. Hasegawa, M. Ishida, T. Nakajima, Y. Honda, O. Kitao, H. Nakai, 
 T. Vreven, K. Throssell, J. A. Montgomery, Jr., J. E. Peralta, 
 F. Ogliaro, M. J. Bearpark, J. J. Heyd, E. N. Brothers, K. N. Kudin, 
 V. N. Staroverov, T. A. Keith, R. Kobayashi, J. Normand, 
 K. Raghavachari, A. P. Rendell, J. C. Burant, S. S. Iyengar, 
 J. Tomasi, M. Cossi, J. M. Millam, M. Klene, C. Adamo, R. Cammi, 
 J. W. Ochterski, R. L. Martin, K. Morokuma, O. Farkas, 
 J. B. Foresman, and D. J. Fox, Gaussian, Inc., Wallingford CT, 2016.
 
 ******************************************
 Gaussian 16:  ES64L-G16RevB.01 20-Dec-2017
                 5-Jan-2023 
 ******************************************
 %nprocshared=50
 Will use up to   50 processors via shared memory.
 %mem=10GB
 %chk=Thymine6311-freq-solv-ES3.chk
 ----------------------------------------------------------------------
 #p freq td=(nstates=10,root=3) cam-b3lyp/6-311+g(d,p) scrf=(solvent=wa
 ter,pcm) symm=loose
 ----------------------------------------------------------------------
 1/10=4,30=1,38=1/1,3;
 2/12=2,17=4,18=3,40=1/2;
 3/5=4,6=6,7=111,11=9,25=1,30=1,70=2201,71=2,72=1,74=-40,140=1/1,2,3,8;
 4//1;
 5/5=2,38=5,53=1,98=1/2;
 8/6=1,10=2,107=3,108=10/1;
 9/8=3,15=3,41=10,42=1,70=2/14;
 10/5=2004,20=4,28=3/2;
 11/6=1,8=1,12=-3,16=1,42=3/1,2,10;
 10/6=3,21=1,28=3/2,14;
 6/7=2,8=2,9=2,10=2/1;
 7/8=1,10=1,12=6,13=8,14=3,25=1,44=2/1,2,3,16;
 1/10=4,30=1/3;
 99//99;
 Leave Link    1 at Thu Jan  5 14:59:54 2023, MaxMem=  1342177280 cpu:               4.0 elap:               0.1
 (Enter /shared/gaussian/g16.b01/AVX2/g16/l101.exe)
 --------------------
 Thymine solvated ES3
 --------------------
 Symbolic Z-matrix:
 Charge =  0 Multiplicity = 1
 N                    -0.23117  -0.03514  -0.18765 
 C                     1.09637  -0.362    -0.13809 
 N                     1.94349   0.69304   0.00033 
 C                     1.50712   1.98844   0.09405 
 C                     0.20304   2.31854   0.06272 
 C                    -0.75796   1.242    -0.07949 
 H                    -0.88878  -0.81343  -0.33326 
 O                     1.49365  -1.52662  -0.21212 
 H                     2.93788   0.46073   0.03201 
 H                     2.28981   2.72781   0.1993 
 O                    -1.97581   1.4124   -0.10838 
 C                    -0.29892   3.72357   0.17089 
 H                    -0.87752   4.00063  -0.71272 
 H                    -0.95505   3.8378    1.03618 
 H                     0.53193   4.42132   0.27266 
 O                    -2.15696  -2.18939  -0.54554 
 H                     0.53502  -3.05163   0.41374 
 O                     4.21976  -1.0042    0.05234 
 H                    -3.35011   0.32965   0.14121 
 H                    -2.95662  -1.6966   -0.24879 
 H                    -2.33746  -2.49334  -1.44134 
 O                    -0.11605  -3.71234   0.69918 
 H                    -0.9538   -3.34536   0.37493 
 H                     3.43773  -1.55482  -0.12499 
 H                     4.87117  -1.22696  -0.61977 
 O                    -4.00852  -0.39484   0.18979 
 H                    -4.41687  -0.34438   1.0594 
 
 ITRead=  0  0  0  0  0  0  0  0  0  0  0  0  0  0  0  0  0  0  0  0
 ITRead=  0  0  0  0  0  0  0
 MicOpt= -1 -1 -1 -1 -1 -1 -1 -1 -1 -1 -1 -1 -1 -1 -1 -1 -1 -1 -1 -1
 MicOpt= -1 -1 -1 -1 -1 -1 -1
 NAtoms=     27 NQM=       27 NQMF=       0 NMMI=      0 NMMIF=      0
                NMic=       0 NMicF=      0.
                    Isotopes and Nuclear Properties:
 (Nuclear quadrupole moments (NQMom) in fm**2, nuclear magnetic moments (NMagM)
  in nuclear magnetons)

  Atom         1           2           3           4           5           6           7           8           9          10
 IAtWgt=          14          12          14          12          12          12           1          16           1           1
 AtmWgt=  14.0030740  12.0000000  14.0030740  12.0000000  12.0000000  12.0000000   1.0078250  15.9949146   1.0078250   1.0078250
 NucSpn=           2           0           2           0           0           0           1           0           1           1
 AtZEff=  -0.0000000  -0.0000000  -0.0000000  -0.0000000  -0.0000000  -0.0000000  -0.0000000  -0.0000000  -0.0000000  -0.0000000
 NQMom=    2.0440000   0.0000000   2.0440000   0.0000000   0.0000000   0.0000000   0.0000000   0.0000000   0.0000000   0.0000000
 NMagM=    0.4037610   0.0000000   0.4037610   0.0000000   0.0000000   0.0000000   2.7928460   0.0000000   2.7928460   2.7928460
 AtZNuc=   7.0000000   6.0000000   7.0000000   6.0000000   6.0000000   6.0000000   1.0000000   8.0000000   1.0000000   1.0000000

  Atom        11          12          13          14          15          16          17          18          19          20
 IAtWgt=          16          12           1           1           1          16           1          16           1           1
 AtmWgt=  15.9949146  12.0000000   1.0078250   1.0078250   1.0078250  15.9949146   1.0078250  15.9949146   1.0078250   1.0078250
 NucSpn=           0           0           1           1           1           0           1           0           1           1
 AtZEff=  -0.0000000  -0.0000000  -0.0000000  -0.0000000  -0.0000000  -0.0000000  -0.0000000  -0.0000000  -0.0000000  -0.0000000
 NQMom=    0.0000000   0.0000000   0.0000000   0.0000000   0.0000000   0.0000000   0.0000000   0.0000000   0.0000000   0.0000000
 NMagM=    0.0000000   0.0000000   2.7928460   2.7928460   2.7928460   0.0000000   2.7928460   0.0000000   2.7928460   2.7928460
 AtZNuc=   8.0000000   6.0000000   1.0000000   1.0000000   1.0000000   8.0000000   1.0000000   8.0000000   1.0000000   1.0000000

  Atom        21          22          23          24          25          26          27
 IAtWgt=           1          16           1           1           1          16           1
 AtmWgt=   1.0078250  15.9949146   1.0078250   1.0078250   1.0078250  15.9949146   1.0078250
 NucSpn=           1           0           1           1           1           0           1
 AtZEff=  -0.0000000  -0.0000000  -0.0000000  -0.0000000  -0.0000000  -0.0000000  -0.0000000
 NQMom=    0.0000000   0.0000000   0.0000000   0.0000000   0.0000000   0.0000000   0.0000000
 NMagM=    2.7928460   0.0000000   2.7928460   2.7928460   2.7928460   0.0000000   2.7928460
 AtZNuc=   1.0000000   8.0000000   1.0000000   1.0000000   1.0000000   8.0000000   1.0000000
 Leave Link  101 at Thu Jan  5 14:59:54 2023, MaxMem=  1342177280 cpu:               5.7 elap:               0.1
 (Enter /shared/gaussian/g16.b01/AVX2/g16/l103.exe)

 GradGradGradGradGradGradGradGradGradGradGradGradGradGradGradGradGradGrad
 Berny optimization.
 Initialization pass.
 Trust Radius=3.00D-01 FncErr=1.00D-07 GrdErr=1.00D-07 EigMax=2.50D+02 EigMin=1.00D-04
 Number of steps in this run=      2 maximum allowed number of steps=      2.
 GradGradGradGradGradGradGradGradGradGradGradGradGradGradGradGradGradGrad

 Leave Link  103 at Thu Jan  5 14:59:54 2023, MaxMem=  1342177280 cpu:               1.0 elap:               0.0
 (Enter /shared/gaussian/g16.b01/AVX2/g16/l202.exe)
                          Input orientation:                          
 ---------------------------------------------------------------------
 Center     Atomic      Atomic             Coordinates (Angstroms)
 Number     Number       Type             X           Y           Z
 ---------------------------------------------------------------------
      1          7           0       -0.231165   -0.035141   -0.187654
      2          6           0        1.096368   -0.361997   -0.138091
      3          7           0        1.943485    0.693041    0.000329
      4          6           0        1.507124    1.988439    0.094046
      5          6           0        0.203040    2.318540    0.062719
      6          6           0       -0.757961    1.241995   -0.079486
      7          1           0       -0.888783   -0.813428   -0.333259
      8          8           0        1.493654   -1.526624   -0.212117
      9          1           0        2.937877    0.460730    0.032007
     10          1           0        2.289814    2.727806    0.199297
     11          8           0       -1.975809    1.412395   -0.108376
     12          6           0       -0.298918    3.723573    0.170889
     13          1           0       -0.877521    4.000626   -0.712721
     14          1           0       -0.955053    3.837803    1.036180
     15          1           0        0.531929    4.421320    0.272664
     16          8           0       -2.156963   -2.189392   -0.545540
     17          1           0        0.535018   -3.051632    0.413739
     18          8           0        4.219759   -1.004202    0.052340
     19          1           0       -3.350109    0.329652    0.141206
     20          1           0       -2.956623   -1.696599   -0.248786
     21          1           0       -2.337462   -2.493339   -1.441344
     22          8           0       -0.116054   -3.712336    0.699184
     23          1           0       -0.953795   -3.345363    0.374927
     24          1           0        3.437732   -1.554817   -0.124989
     25          1           0        4.871171   -1.226960   -0.619765
     26          8           0       -4.008523   -0.394843    0.189792
     27          1           0       -4.416871   -0.344381    1.059404
 ---------------------------------------------------------------------
                    Distance matrix (angstroms):
                    1          2          3          4          5
     1  N    0.000000
     2  C    1.368077   0.000000
     3  N    2.301019   1.360100   0.000000
     4  C    2.682514   2.397323   1.370128   0.000000
     5  C    2.406457   2.832603   2.382286   1.345579   0.000000
     6  C    1.385746   2.452501   2.757813   2.391214   1.450067
     7  H    1.029268   2.045166   3.225286   3.711256   3.340374
     8  O    2.280377   1.232750   2.274729   3.528397   4.065280
     9  H    3.215115   2.024097   1.021659   2.093991   3.306317
    10  H    3.760178   3.329418   2.073596   1.081825   2.130910
    11  O    2.268354   3.547904   3.986245   3.536046   2.365958
    12  C    3.776384   4.328299   3.773803   2.505670   1.495921
    13  H    4.120787   4.822750   4.405296   3.222779   2.144372
    14  H    4.125709   4.819290   4.400459   3.220261   2.144054
    15  H    4.544695   4.833987   3.995838   2.627131   2.138674
    16  O    2.911628   3.753605   5.041832   5.593646   5.124553
    17  H    3.169847   2.802457   4.022097   5.142909   5.391862
    18  O    4.561513   3.194411   2.839853   4.039310   5.212941
    19  H    3.157378   4.508608   5.307922   5.132885   4.072678
    20  H    3.192538   4.268507   5.457426   5.798455   5.118774
    21  H    3.471450   4.246443   5.527924   6.101196   5.645399
    22  O    3.784375   3.660023   4.912987   5.958165   6.072757
    23  H    3.434569   3.656067   4.984302   5.880855   5.789261
    24  H    3.971668   2.627732   2.702100   4.041025   5.049887
    25  H    5.257469   3.902475   3.555596   4.707986   5.901508
    26  O    3.813172   5.115515   6.053576   6.009290   5.011572
    27  H    4.378461   5.641818   6.530851   6.439541   5.424768
                    6          7          8          9         10
     6  C    0.000000
     7  H    2.075158   0.000000
     8  O    3.571080   2.489845   0.000000
     9  H    3.779157   4.049719   2.468796   0.000000
    10  H    3.402100   4.788260   4.347793   2.363812   0.000000
    11  O    1.230051   2.487265   4.548161   5.006964   4.474428
    12  C    2.536067   4.602878   5.560987   4.598073   2.773787
    13  H    2.832901   4.828999   6.035194   5.257637   3.533250
    14  H    2.832274   4.849093   6.027561   5.250513   3.530103
    15  H    3.449048   5.457852   6.044664   4.640342   2.442034
    16  O    3.734813   1.883247   3.725243   5.771837   6.671390
    17  H    4.511131   2.755861   1.906916   4.272720   6.043773
    18  O    5.462644   5.126625   2.788281   1.946705   4.204066
    19  H    2.756865   2.754973   5.199292   6.290300   6.128886
    20  H    3.673978   2.250131   4.453673   6.283156   6.877590
    21  H    4.278107   2.479642   4.137993   6.223061   7.166850
    22  O    5.056062   3.172809   2.863384   5.214029   6.893005
    23  H    4.613967   2.629914   3.105228   5.454269   6.887324
    24  H    5.042625   4.394515   1.946234   2.082530   4.445642
    25  H    6.170475   5.781882   3.415201   2.647778   4.793166
    26  O    3.649370   3.190858   5.631732   7.000670   7.029941
    27  H    4.147443   3.821900   6.160257   7.469676   7.426826
                   11         12         13         14         15
    11  O    0.000000
    12  C    2.869058   0.000000
    13  H    2.875832   1.091928   0.000000
    14  H    2.869591   1.091920   1.758174   0.000000
    15  H    3.935425   1.089732   1.770457   1.770470   0.000000
    16  O    3.632740   6.239291   6.323072   6.346141   7.183391
    17  H    5.148242   6.830654   7.280008   7.076161   7.474284
    18  O    6.652130   6.540975   7.184420   7.154833   6.563911
    19  H    1.767293   4.563918   4.507653   4.341013   5.641742
    20  H    3.263059   6.051263   6.082456   6.023871   7.061929
    21  H    4.142747   6.738320   6.695812   6.937762   7.680087
    22  O    5.511235   7.456895   7.878013   7.604083   8.170567
    23  H    4.890231   7.102137   7.426463   7.213538   7.908173
    24  H    6.173415   6.473909   7.059021   7.051611   6.657029
    25  H    7.355872   7.201578   7.770699   7.895496   7.178337
    26  O    2.736227   5.542822   5.471549   5.287281   6.619516
    27  H    3.226260   5.856214   5.877628   5.429124   6.915308
                   16         17         18         19         20
    16  O    0.000000
    17  H    2.985035   0.000000
    18  O    6.513426   4.230827   0.000000
    19  H    2.870679   5.157671   7.687000   0.000000
    20  H    0.985071   3.803500   7.215993   2.100623   0.000000
    21  H    0.963031   3.464703   6.888089   3.391047   1.562162
    22  O    2.834432   0.970517   5.152831   5.206546   3.609803
    23  H    1.905555   1.518008   5.687773   4.393482   2.668101
    24  H    5.646252   3.310050   0.972722   7.049601   6.397125
    25  H    7.094114   4.816615   0.962125   8.401879   7.850640
    26  O    2.681304   5.268059   8.251960   0.980185   1.730148
    27  H    3.329729   5.680431   8.720144   1.560573   2.381634
                   21         22         23         24         25
    21  H    0.000000
    22  O    3.316997   0.000000
    23  H    2.437072   0.970372   0.000000
    24  H    5.997206   4.238342   4.768803   0.000000
    25  H    7.364991   5.726180   6.277521   1.551464   0.000000
    26  O    3.139544   5.139704   4.251024   7.542635   8.955265
    27  H    3.898167   5.474478   4.633281   8.035094   9.479783
                   26         27
    26  O    0.000000
    27  H    0.962039   0.000000
 Stoichiometry    C5H14N2O6
 Framework group  C1[X(C5H14N2O6)]
 Deg. of freedom    75
 Full point group                 C1      NOp   1
 Largest Abelian subgroup         C1      NOp   1
 Largest concise Abelian subgroup C1      NOp   1
                         Standard orientation:                         
 ---------------------------------------------------------------------
 Center     Atomic      Atomic             Coordinates (Angstroms)
 Number     Number       Type             X           Y           Z
 ---------------------------------------------------------------------
      1          7           0       -0.231165   -0.035141   -0.187654
      2          6           0        1.096368   -0.361997   -0.138091
      3          7           0        1.943485    0.693041    0.000329
      4          6           0        1.507124    1.988439    0.094046
      5          6           0        0.203040    2.318540    0.062719
      6          6           0       -0.757961    1.241995   -0.079486
      7          1           0       -0.888783   -0.813428   -0.333259
      8          8           0        1.493654   -1.526624   -0.212117
      9          1           0        2.937877    0.460731    0.032007
     10          1           0        2.289814    2.727806    0.199297
     11          8           0       -1.975809    1.412395   -0.108376
     12          6           0       -0.298919    3.723573    0.170889
     13          1           0       -0.877522    4.000626   -0.712721
     14          1           0       -0.955054    3.837803    1.036180
     15          1           0        0.531928    4.421320    0.272664
     16          8           0       -2.156963   -2.189392   -0.545540
     17          1           0        0.535019   -3.051632    0.413739
     18          8           0        4.219759   -1.004201    0.052340
     19          1           0       -3.350109    0.329651    0.141206
     20          1           0       -2.956623   -1.696600   -0.248786
     21          1           0       -2.337461   -2.493339   -1.441344
     22          8           0       -0.116053   -3.712336    0.699184
     23          1           0       -0.953794   -3.345363    0.374927
     24          1           0        3.437732   -1.554816   -0.124989
     25          1           0        4.871171   -1.226959   -0.619765
     26          8           0       -4.008523   -0.394844    0.189792
     27          1           0       -4.416871   -0.344382    1.059404
 ---------------------------------------------------------------------
 Rotational constants (GHZ):           0.6284335           0.5383142           0.2971763
 Leave Link  202 at Thu Jan  5 14:59:54 2023, MaxMem=  1342177280 cpu:               0.4 elap:               0.0
 (Enter /shared/gaussian/g16.b01/AVX2/g16/l301.exe)
 Standard basis: 6-311+G(d,p) (5D, 7F)
 Ernie: Thresh=  0.10000D-02 Tol=  0.10000D-05 Strict=F.
 There are   383 symmetry adapted cartesian basis functions of A   symmetry.
 There are   370 symmetry adapted basis functions of A   symmetry.
   370 basis functions,   580 primitive gaussians,   383 cartesian basis functions
    53 alpha electrons       53 beta electrons
       nuclear repulsion energy       873.8248456000 Hartrees.
 IExCor=20419 DFT=T Ex+Corr=CAM-B3LYP ExCW=0 ScaHFX=  1.000000
 ScaDFX=  1.000000  1.000000  1.000000  0.810000 ScalE2=  1.000000  1.000000
 IRadAn=      5 IRanWt=     -1 IRanGd=            0 ICorTp=0 IEmpDi=  4
 HFx  wShort=  0.000000 wLong=  0.330000 cFull=  0.190000 cShort=  0.000000 cLong=  0.460000
 DFx  wShort=  0.000000 wLong=  0.330000 cFull=  0.190000 cShort=  0.000000 cLong=  0.460000
 NAtoms=   27 NActive=   27 NUniq=   27 SFac= 1.00D+00 NAtFMM=   60 NAOKFM=F Big=F
 Integral buffers will be    131072 words long.
 Raffenetti 1 integral format.
 Two-electron integral symmetry is turned on.
 Force inversion solution in PCM.
 ------------------------------------------------------------------------------
 Polarizable Continuum Model (PCM)
 =================================
 Model                : PCM.
 Atomic radii         : UFF (Universal Force Field).
 Polarization charges : Total charges.
 Charge compensation  : None.
 Solution method      : Matrix inversion.
 Cavity type          : Scaled VdW (van der Waals Surface) (Alpha=1.100).
 Cavity algorithm     : GePol (No added spheres)
                        Default sphere list used, NSphG=   27.
                        Lebedev-Laikov grids with approx.  5.0 points / Ang**2.
                        Smoothing algorithm: York/Karplus (Gamma=1.0000).
                        Polarization charges: spherical gaussians, with
                                              point-specific exponents (IZeta= 3).
                        Self-potential: point-specific (ISelfS= 7).
                        Self-field    : sphere-specific E.n sum rule (ISelfD= 2).
 1st derivatives      : Analytical E(r).r(x)/FMM algorithm (CHGder, D1EAlg=3).
                        Cavity 1st derivative terms included.
 2nd derivatives      : Analytical E(r).r(xy)/FMM algorithm (CHGder, D2EAlg=3).
                        Cavity 2nd derivative terms included.
 Solvent              : Water, Eps=  78.355300 Eps(inf)=   1.777849
 ------------------------------------------------------------------------------
 GePol: Number of generator spheres                  =      27
 GePol: Total number of spheres                      =      27
 GePol: Number of exposed spheres                    =      27 (100.00%)
 GePol: Number of points                             =    2281
 GePol: Average weight of points                     =       0.12
 GePol: Minimum weight of points                     =   0.27D-09
 GePol: Maximum weight of points                     =    0.20577
 GePol: Number of points with low weight             =     148
 GePol: Fraction of low-weight points (<1% of avg)   =       6.49%
 GePol: Cavity surface area                          =    280.953 Ang**2
 GePol: Cavity volume                                =    278.556 Ang**3
 Leave Link  301 at Thu Jan  5 14:59:54 2023, MaxMem=  1342177280 cpu:               4.0 elap:               0.1
 (Enter /shared/gaussian/g16.b01/AVX2/g16/l302.exe)
 NPDir=0 NMtPBC=     1 NCelOv=     1 NCel=       1 NClECP=     1 NCelD=      1
         NCelK=      1 NCelE2=     1 NClLst=     1 CellRange=     0.0.
 One-electron integrals computed using PRISM.
 One-electron integral symmetry used in STVInt
 NBasis=   370 RedAO= T EigKep=  5.61D-06  NBF=   370
 NBsUse=   370 1.00D-06 EigRej= -1.00D+00 NBFU=   370
 Precomputing XC quadrature grid using
 IXCGrd= 4 IRadAn=           5 IRanWt=          -1 IRanGd=           0 AccXCQ= 0.00D+00.
 Generated NRdTot=       0 NPtTot=           0 NUsed=           0 NTot=          32
 NSgBfM=   381   381   381   381   381 MxSgAt=    27 MxSgA2=    27.
 Leave Link  302 at Thu Jan  5 14:59:55 2023, MaxMem=  1342177280 cpu:              16.9 elap:               0.4
 (Enter /shared/gaussian/g16.b01/AVX2/g16/l303.exe)
 DipDrv:  MaxL=1.
 Leave Link  303 at Thu Jan  5 14:59:55 2023, MaxMem=  1342177280 cpu:               2.5 elap:               0.1
 (Enter /shared/gaussian/g16.b01/AVX2/g16/l308.exe)
 Leave Link  308 at Thu Jan  5 14:59:55 2023, MaxMem=  1342177280 cpu:               4.0 elap:               0.1
 (Enter /shared/gaussian/g16.b01/AVX2/g16/l401.exe)
 ExpMin= 4.38D-02 ExpMax= 8.59D+03 ExpMxC= 1.30D+03 IAcc=3 IRadAn=         5 AccDes= 0.00D+00
 Harris functional with IExCor=20419 and IRadAn=       5 diagonalized for initial guess.
 HarFok:  IExCor=20419 AccDes= 0.00D+00 IRadAn=         5 IDoV= 1 UseB2=F ITyADJ=14
 ICtDFT=  3500011 ScaDFX=  1.000000  1.000000  1.000000  1.000000
 FoFCou: FMM=F IPFlag=           0 FMFlag=      100000 FMFlg1=           0
         NFxFlg=           0 DoJE=T BraDBF=F KetDBF=T FulRan=T
         wScrn=  0.000000 ICntrl=       500 IOpCl=  0 I1Cent=   200000004 NGrid=           0
         NMat0=    1 NMatS0=      1 NMatT0=    0 NMatD0=    1 NMtDS0=    0 NMtDT0=    0
 Petite list used in FoFCou.
 Harris En= -733.390347824989    
 JPrj=0 DoOrth=F DoCkMO=F.
 Leave Link  401 at Thu Jan  5 14:59:56 2023, MaxMem=  1342177280 cpu:              26.9 elap:               0.6
 (Enter /shared/gaussian/g16.b01/AVX2/g16/l502.exe)
 Integral symmetry usage will be decided dynamically.
 Closed shell SCF:
 Using DIIS extrapolation, IDIIS=  1040.
 NGot=  1342177280 LenX=  1341860947 LenY=  1341713817
 Requested convergence on RMS density matrix=1.00D-08 within 128 cycles.
 Requested convergence on MAX density matrix=1.00D-06.
 Requested convergence on             energy=1.00D-06.
 No special actions if energy rises.
 Fock matrices will be formed incrementally for  20 cycles.

 Cycle   1  Pass 1  IDiag  1:
 FoFJK:  IHMeth= 1 ICntrl=       0 DoSepK=T KAlg= 0 I1Cent=           0 FoldK=F
 IRaf=         1 NMat=       1 IRICut=       1 DoRegI=T DoRafI=F ISym2E= 0 IDoP0=0 IntGTp=1.
 FoFCou: FMM=F IPFlag=           0 FMFlag=      100000 FMFlg1=           0
         NFxFlg=           0 DoJE=T BraDBF=F KetDBF=F FulRan=T
         wScrn=  0.000000 ICntrl=       500 IOpCl=  0 I1Cent=           0 NGrid=           0
         NMat0=    1 NMatS0=      1 NMatT0=    0 NMatD0=    1 NMtDS0=    0 NMtDT0=    0
 Symmetry not used in FoFCou.
 Inv3:  Mode=1 IEnd=    15608883.
 Iteration    1 A*A^-1 deviation from unit magnitude is 3.11D-15 for   1614.
 Iteration    1 A*A^-1 deviation from orthogonality  is 1.93D-15 for   1034     10.
 Iteration    1 A^-1*A deviation from unit magnitude is 3.33D-15 for   1630.
 Iteration    1 A^-1*A deviation from orthogonality  is 8.69D-14 for   1443   1357.
 E= -759.733593705001    
 DIIS: error= 5.40D-02 at cycle   1 NSaved=   1.
 NSaved= 1 IEnMin= 1 EnMin= -759.733593705001     IErMin= 1 ErrMin= 5.40D-02
 ErrMax= 5.40D-02  0.00D+00 EMaxC= 1.00D-01 BMatC= 1.14D+00 BMatP= 1.14D+00
 IDIUse=3 WtCom= 4.60D-01 WtEn= 5.40D-01
 Coeff-Com:  0.100D+01
 Coeff-En:   0.100D+01
 Coeff:      0.100D+01
 Gap=     0.309 Goal=   None    Shift=    0.000
 GapD=    0.309 DampG=1.000 DampE=0.500 DampFc=0.5000 IDamp=-1.
 Damping current iteration by 5.00D-01
 RMSDP=8.48D-03 MaxDP=1.43D+00              OVMax= 1.29D-01

 Cycle   2  Pass 1  IDiag  1:
 RMSU=  2.89D-03    CP:  8.66D-01
 E= -759.810862702388     Delta-E=       -0.077268997387 Rises=F Damp=T
 DIIS: error= 2.57D-02 at cycle   2 NSaved=   2.
 NSaved= 2 IEnMin= 2 EnMin= -759.810862702388     IErMin= 2 ErrMin= 2.57D-02
 ErrMax= 2.57D-02  0.00D+00 EMaxC= 1.00D-01 BMatC= 2.38D-01 BMatP= 1.14D+00
 IDIUse=3 WtCom= 7.43D-01 WtEn= 2.57D-01
 Coeff-Com: -0.682D+00 0.168D+01
 Coeff-En:   0.000D+00 0.100D+01
 Coeff:     -0.507D+00 0.151D+01
 Gap=     0.336 Goal=   None    Shift=    0.000
 RMSDP=4.19D-03 MaxDP=5.56D-01 DE=-7.73D-02 OVMax= 1.08D-01

 Cycle   3  Pass 1  IDiag  1:
 RMSU=  1.84D-03    CP:  7.26D-01  1.66D+00
 E= -759.859758548455     Delta-E=       -0.048895846067 Rises=F Damp=F
 DIIS: error= 1.06D-02 at cycle   3 NSaved=   3.
 NSaved= 3 IEnMin= 3 EnMin= -759.859758548455     IErMin= 3 ErrMin= 1.06D-02
 ErrMax= 1.06D-02  0.00D+00 EMaxC= 1.00D-01 BMatC= 3.67D-02 BMatP= 2.38D-01
 IDIUse=3 WtCom= 8.94D-01 WtEn= 1.06D-01
 Coeff-Com: -0.356D+00 0.767D+00 0.588D+00
 Coeff-En:   0.000D+00 0.000D+00 0.100D+01
 Coeff:     -0.318D+00 0.686D+00 0.632D+00
 Gap=     0.303 Goal=   None    Shift=    0.000
 RMSDP=1.02D-03 MaxDP=9.73D-02 DE=-4.89D-02 OVMax= 5.64D-02

 Cycle   4  Pass 1  IDiag  1:
 RMSU=  4.46D-04    CP:  7.21D-01  1.89D+00  6.61D-01
 E= -759.888183527551     Delta-E=       -0.028424979096 Rises=F Damp=F
 DIIS: error= 3.46D-03 at cycle   4 NSaved=   4.
 NSaved= 4 IEnMin= 4 EnMin= -759.888183527551     IErMin= 4 ErrMin= 3.46D-03
 ErrMax= 3.46D-03  0.00D+00 EMaxC= 1.00D-01 BMatC= 3.69D-03 BMatP= 3.67D-02
 IDIUse=3 WtCom= 9.65D-01 WtEn= 3.46D-02
 Coeff-Com: -0.170D+00 0.361D+00 0.364D+00 0.445D+00
 Coeff-En:   0.000D+00 0.000D+00 0.000D+00 0.100D+01
 Coeff:     -0.164D+00 0.348D+00 0.351D+00 0.464D+00
 Gap=     0.300 Goal=   None    Shift=    0.000
 RMSDP=3.37D-04 MaxDP=4.01D-02 DE=-2.84D-02 OVMax= 1.26D-02

 Cycle   5  Pass 1  IDiag  1:
 RMSU=  1.52D-04    CP:  7.13D-01  1.87D+00  7.56D-01  6.78D-01
 E= -759.890781028148     Delta-E=       -0.002597500597 Rises=F Damp=F
 DIIS: error= 5.77D-04 at cycle   5 NSaved=   5.
 NSaved= 5 IEnMin= 5 EnMin= -759.890781028148     IErMin= 5 ErrMin= 5.77D-04
 ErrMax= 5.77D-04  0.00D+00 EMaxC= 1.00D-01 BMatC= 7.77D-05 BMatP= 3.69D-03
 IDIUse=3 WtCom= 9.94D-01 WtEn= 5.77D-03
 Coeff-Com: -0.344D-01 0.723D-01 0.889D-01 0.185D+00 0.688D+00
 Coeff-En:   0.000D+00 0.000D+00 0.000D+00 0.000D+00 0.100D+01
 Coeff:     -0.343D-01 0.719D-01 0.884D-01 0.184D+00 0.690D+00
 Gap=     0.300 Goal=   None    Shift=    0.000
 RMSDP=8.41D-05 MaxDP=7.31D-03 DE=-2.60D-03 OVMax= 3.82D-03

 Cycle   6  Pass 1  IDiag  1:
 RMSU=  4.24D-05    CP:  7.12D-01  1.89D+00  7.66D-01  7.79D-01  9.47D-01
 E= -759.890843246612     Delta-E=       -0.000062218465 Rises=F Damp=F
 DIIS: error= 2.59D-04 at cycle   6 NSaved=   6.
 NSaved= 6 IEnMin= 6 EnMin= -759.890843246612     IErMin= 6 ErrMin= 2.59D-04
 ErrMax= 2.59D-04  0.00D+00 EMaxC= 1.00D-01 BMatC= 1.39D-05 BMatP= 7.77D-05
 IDIUse=3 WtCom= 9.97D-01 WtEn= 2.59D-03
 Coeff-Com:  0.130D-01-0.279D-01-0.204D-01 0.961D-03 0.331D+00 0.703D+00
 Coeff-En:   0.000D+00 0.000D+00 0.000D+00 0.000D+00 0.000D+00 0.100D+01
 Coeff:      0.129D-01-0.278D-01-0.204D-01 0.959D-03 0.331D+00 0.704D+00
 Gap=     0.300 Goal=   None    Shift=    0.000
 RMSDP=4.13D-05 MaxDP=4.75D-03 DE=-6.22D-05 OVMax= 2.03D-03

 Cycle   7  Pass 1  IDiag  1:
 RMSU=  1.54D-05    CP:  7.10D-01  1.89D+00  7.74D-01  7.90D-01  1.05D+00
                    CP:  9.48D-01
 E= -759.890858596097     Delta-E=       -0.000015349484 Rises=F Damp=F
 DIIS: error= 6.25D-05 at cycle   7 NSaved=   7.
 NSaved= 7 IEnMin= 7 EnMin= -759.890858596097     IErMin= 7 ErrMin= 6.25D-05
 ErrMax= 6.25D-05  0.00D+00 EMaxC= 1.00D-01 BMatC= 1.42D-06 BMatP= 1.39D-05
 IDIUse=1 WtCom= 1.00D+00 WtEn= 0.00D+00
 Coeff-Com:  0.898D-02-0.190D-01-0.182D-01-0.258D-01 0.505D-01 0.270D+00
 Coeff-Com:  0.733D+00
 Coeff:      0.898D-02-0.190D-01-0.182D-01-0.258D-01 0.505D-01 0.270D+00
 Coeff:      0.733D+00
 Gap=     0.300 Goal=   None    Shift=    0.000
 RMSDP=1.17D-05 MaxDP=1.30D-03 DE=-1.53D-05 OVMax= 5.88D-04

 Cycle   8  Pass 1  IDiag  1:
 RMSU=  5.29D-06    CP:  7.10D-01  1.89D+00  7.76D-01  7.94D-01  1.09D+00
                    CP:  1.02D+00  1.09D+00
 E= -759.890860482123     Delta-E=       -0.000001886026 Rises=F Damp=F
 DIIS: error= 3.66D-05 at cycle   8 NSaved=   8.
 NSaved= 8 IEnMin= 8 EnMin= -759.890860482123     IErMin= 8 ErrMin= 3.66D-05
 ErrMax= 3.66D-05  0.00D+00 EMaxC= 1.00D-01 BMatC= 2.47D-07 BMatP= 1.42D-06
 IDIUse=1 WtCom= 1.00D+00 WtEn= 0.00D+00
 Coeff-Com:  0.126D-02-0.261D-02-0.374D-02-0.130D-01-0.341D-01-0.977D-03
 Coeff-Com:  0.308D+00 0.745D+00
 Coeff:      0.126D-02-0.261D-02-0.374D-02-0.130D-01-0.341D-01-0.977D-03
 Coeff:      0.308D+00 0.745D+00
 Gap=     0.300 Goal=   None    Shift=    0.000
 RMSDP=5.52D-06 MaxDP=5.00D-04 DE=-1.89D-06 OVMax= 4.24D-04

 Cycle   9  Pass 1  IDiag  1:
 RMSU=  3.03D-06    CP:  7.10D-01  1.89D+00  7.76D-01  7.94D-01  1.11D+00
                    CP:  1.04D+00  1.25D+00  1.08D+00
 E= -759.890860832660     Delta-E=       -0.000000350538 Rises=F Damp=F
 DIIS: error= 1.50D-05 at cycle   9 NSaved=   9.
 NSaved= 9 IEnMin= 9 EnMin= -759.890860832660     IErMin= 9 ErrMin= 1.50D-05
 ErrMax= 1.50D-05  0.00D+00 EMaxC= 1.00D-01 BMatC= 3.56D-08 BMatP= 2.47D-07
 IDIUse=1 WtCom= 1.00D+00 WtEn= 0.00D+00
 Coeff-Com: -0.995D-03 0.213D-02 0.152D-02-0.162D-02-0.189D-01-0.389D-01
 Coeff-Com:  0.798D-02 0.305D+00 0.744D+00
 Coeff:     -0.995D-03 0.213D-02 0.152D-02-0.162D-02-0.189D-01-0.389D-01
 Coeff:      0.798D-02 0.305D+00 0.744D+00
 Gap=     0.300 Goal=   None    Shift=    0.000
 RMSDP=1.80D-06 MaxDP=1.76D-04 DE=-3.51D-07 OVMax= 1.80D-04

 Cycle  10  Pass 1  IDiag  1:
 RMSU=  8.45D-07    CP:  7.10D-01  1.89D+00  7.76D-01  7.93D-01  1.11D+00
                    CP:  1.05D+00  1.28D+00  1.21D+00  1.10D+00
 E= -759.890860881256     Delta-E=       -0.000000048596 Rises=F Damp=F
 DIIS: error= 4.68D-06 at cycle  10 NSaved=  10.
 NSaved=10 IEnMin=10 EnMin= -759.890860881256     IErMin=10 ErrMin= 4.68D-06
 ErrMax= 4.68D-06  0.00D+00 EMaxC= 1.00D-01 BMatC= 7.56D-09 BMatP= 3.56D-08
 IDIUse=1 WtCom= 1.00D+00 WtEn= 0.00D+00
 Coeff-Com: -0.592D-03 0.125D-02 0.117D-02 0.104D-02-0.268D-02-0.179D-01
 Coeff-Com: -0.548D-01 0.128D-01 0.366D+00 0.694D+00
 Coeff:     -0.592D-03 0.125D-02 0.117D-02 0.104D-02-0.268D-02-0.179D-01
 Coeff:     -0.548D-01 0.128D-01 0.366D+00 0.694D+00
 Gap=     0.300 Goal=   None    Shift=    0.000
 RMSDP=8.07D-07 MaxDP=5.90D-05 DE=-4.86D-08 OVMax= 5.27D-05

 Cycle  11  Pass 1  IDiag  1:
 RMSU=  3.63D-07    CP:  7.10D-01  1.89D+00  7.76D-01  7.92D-01  1.11D+00
                    CP:  1.05D+00  1.30D+00  1.24D+00  1.23D+00  9.79D-01
 E= -759.890860890386     Delta-E=       -0.000000009131 Rises=F Damp=F
 DIIS: error= 2.03D-06 at cycle  11 NSaved=  11.
 NSaved=11 IEnMin=11 EnMin= -759.890860890386     IErMin=11 ErrMin= 2.03D-06
 ErrMax= 2.03D-06  0.00D+00 EMaxC= 1.00D-01 BMatC= 3.73D-10 BMatP= 7.56D-09
 IDIUse=1 WtCom= 1.00D+00 WtEn= 0.00D+00
 Coeff-Com: -0.963D-04 0.203D-03 0.236D-03 0.446D-03 0.936D-03-0.252D-02
 Coeff-Com: -0.218D-01-0.184D-01 0.741D-01 0.214D+00 0.753D+00
 Coeff:     -0.963D-04 0.203D-03 0.236D-03 0.446D-03 0.936D-03-0.252D-02
 Coeff:     -0.218D-01-0.184D-01 0.741D-01 0.214D+00 0.753D+00
 Gap=     0.300 Goal=   None    Shift=    0.000
 RMSDP=2.13D-07 MaxDP=1.92D-05 DE=-9.13D-09 OVMax= 2.07D-05

 Cycle  12  Pass 1  IDiag  1:
 RMSU=  1.00D-07    CP:  7.10D-01  1.89D+00  7.76D-01  7.92D-01  1.11D+00
                    CP:  1.05D+00  1.31D+00  1.24D+00  1.25D+00  1.04D+00
                    CP:  1.10D+00
 E= -759.890860890951     Delta-E=       -0.000000000565 Rises=F Damp=F
 DIIS: error= 4.80D-07 at cycle  12 NSaved=  12.
 NSaved=12 IEnMin=12 EnMin= -759.890860890951     IErMin=12 ErrMin= 4.80D-07
 ErrMax= 4.80D-07  0.00D+00 EMaxC= 1.00D-01 BMatC= 1.06D-10 BMatP= 3.73D-10
 IDIUse=1 WtCom= 1.00D+00 WtEn= 0.00D+00
 Coeff-Com:  0.412D-04-0.884D-04-0.541D-04 0.753D-04 0.893D-03 0.183D-02
 Coeff-Com: -0.162D-02-0.943D-02-0.281D-01-0.396D-01 0.338D+00 0.738D+00
 Coeff:      0.412D-04-0.884D-04-0.541D-04 0.753D-04 0.893D-03 0.183D-02
 Coeff:     -0.162D-02-0.943D-02-0.281D-01-0.396D-01 0.338D+00 0.738D+00
 Gap=     0.300 Goal=   None    Shift=    0.000
 RMSDP=9.52D-08 MaxDP=7.05D-06 DE=-5.65D-10 OVMax= 6.47D-06

 Cycle  13  Pass 1  IDiag  1:
 RMSU=  3.91D-08    CP:  7.10D-01  1.89D+00  7.76D-01  7.92D-01  1.11D+00
                    CP:  1.05D+00  1.31D+00  1.25D+00  1.27D+00  1.06D+00
                    CP:  1.22D+00  1.12D+00
 E= -759.890860891099     Delta-E=       -0.000000000148 Rises=F Damp=F
 DIIS: error= 1.76D-07 at cycle  13 NSaved=  13.
 NSaved=13 IEnMin=13 EnMin= -759.890860891099     IErMin=13 ErrMin= 1.76D-07
 ErrMax= 1.76D-07  0.00D+00 EMaxC= 1.00D-01 BMatC= 4.85D-12 BMatP= 1.06D-10
 IDIUse=1 WtCom= 1.00D+00 WtEn= 0.00D+00
 Coeff-Com:  0.190D-04-0.403D-04-0.349D-04-0.250D-04 0.117D-03 0.719D-03
 Coeff-Com:  0.156D-02-0.292D-04-0.140D-01-0.322D-01 0.202D-01 0.154D+00
 Coeff-Com:  0.869D+00
 Coeff:      0.190D-04-0.403D-04-0.349D-04-0.250D-04 0.117D-03 0.719D-03
 Coeff:      0.156D-02-0.292D-04-0.140D-01-0.322D-01 0.202D-01 0.154D+00
 Coeff:      0.869D+00
 Gap=     0.300 Goal=   None    Shift=    0.000
 RMSDP=2.65D-08 MaxDP=2.01D-06 DE=-1.48D-10 OVMax= 2.34D-06

 Cycle  14  Pass 1  IDiag  1:
 RMSU=  1.44D-08    CP:  7.10D-01  1.89D+00  7.76D-01  7.92D-01  1.11D+00
                    CP:  1.05D+00  1.31D+00  1.25D+00  1.27D+00  1.07D+00
                    CP:  1.26D+00  1.17D+00  1.19D+00
 E= -759.890860891103     Delta-E=       -0.000000000004 Rises=F Damp=F
 DIIS: error= 8.23D-08 at cycle  14 NSaved=  14.
 NSaved=14 IEnMin=14 EnMin= -759.890860891103     IErMin=14 ErrMin= 8.23D-08
 ErrMax= 8.23D-08  0.00D+00 EMaxC= 1.00D-01 BMatC= 1.37D-12 BMatP= 4.85D-12
 IDIUse=1 WtCom= 1.00D+00 WtEn= 0.00D+00
 Coeff-Com:  0.244D-05-0.500D-05-0.753D-05-0.214D-04-0.781D-04 0.613D-04
 Coeff-Com:  0.825D-03 0.142D-02-0.168D-02-0.732D-02-0.371D-01-0.506D-01
 Coeff-Com:  0.375D+00 0.720D+00
 Coeff:      0.244D-05-0.500D-05-0.753D-05-0.214D-04-0.781D-04 0.613D-04
 Coeff:      0.825D-03 0.142D-02-0.168D-02-0.732D-02-0.371D-01-0.506D-01
 Coeff:      0.375D+00 0.720D+00
 Gap=     0.300 Goal=   None    Shift=    0.000
 RMSDP=9.03D-09 MaxDP=6.09D-07 DE=-3.64D-12 OVMax= 8.46D-07

 Error on total polarization charges =  0.01625
 SCF Done:  E(RCAM-B3LYP) =  -759.890860891     A.U. after   14 cycles
            NFock= 14  Conv=0.90D-08     -V/T= 2.0031
 KE= 7.575792157718D+02 PE=-3.532496864760D+03 EE= 1.141201942497D+03
 Leave Link  502 at Thu Jan  5 15:00:17 2023, MaxMem=  1342177280 cpu:            1023.2 elap:              21.3
 (Enter /shared/gaussian/g16.b01/AVX2/g16/l801.exe)
 DoSCS=F DFT=T ScalE2(SS,OS)=  1.000000  1.000000
 ExpMin= 4.38D-02 ExpMax= 8.59D+03 ExpMxC= 1.30D+03 IAcc=3 IRadAn=         5 AccDes= 0.00D+00
 HarFok:  IExCor=  205 AccDes= 0.00D+00 IRadAn=         5 IDoV=-2 UseB2=F ITyADJ=14
 ICtDFT= 12500011 ScaDFX=  1.000000  1.000000  1.000000  1.000000
 Largest valence mixing into a core orbital is  4.85D-05
 Largest core mixing into a valence orbital is  1.01D-05
 Range of M.O.s used for correlation:    14   370
 NBasis=   370 NAE=    53 NBE=    53 NFC=    13 NFV=     0
 NROrb=    357 NOA=    40 NOB=    40 NVA=   317 NVB=   317

 **** Warning!!: The largest alpha MO coefficient is  0.12208706D+03

 Leave Link  801 at Thu Jan  5 15:00:17 2023, MaxMem=  1342177280 cpu:               2.7 elap:               0.1
 (Enter /shared/gaussian/g16.b01/AVX2/g16/l914.exe)
 RHF ground state
 Two-electron integrals replicated using symmetry.
 MDV=  1342177280 DFT=T DoStab=F Mixed=T DoRPA=T DoScal=F NonHer=T
 NEqPCM:  Using equilibrium solvation (IEInf=0, Eps=  78.3553, EpsInf=   1.7778)
 Making orbital integer symmetry assigments:
 Orbital symmetries:
       Occupied  (A) (A) (A) (A) (A) (A) (A) (A) (A) (A) (A) (A)
                 (A) (A) (A) (A) (A) (A) (A) (A) (A) (A) (A) (A)
                 (A) (A) (A) (A) (A) (A) (A) (A) (A) (A) (A) (A)
                 (A) (A) (A) (A) (A) (A) (A) (A) (A) (A) (A) (A)
                 (A) (A) (A) (A) (A)
       Virtual   (A) (A) (A) (A) (A) (A) (A) (A) (A) (A) (A) (A)
                 (A) (A) (A) (A) (A) (A) (A) (A) (A) (A) (A) (A)
                 (A) (A) (A) (A) (A) (A) (A) (A) (A) (A) (A) (A)
                 (A) (A) (A) (A) (A) (A) (A) (A) (A) (A) (A) (A)
                 (A) (A) (A) (A) (A) (A) (A) (A) (A) (A) (A) (A)
                 (A) (A) (A) (A) (A) (A) (A) (A) (A) (A) (A) (A)
                 (A) (A) (A) (A) (A) (A) (A) (A) (A) (A) (A) (A)
                 (A) (A) (A) (A) (A) (A) (A) (A) (A) (A) (A) (A)
                 (A) (A) (A) (A) (A) (A) (A) (A) (A) (A) (A) (A)
                 (A) (A) (A) (A) (A) (A) (A) (A) (A) (A) (A) (A)
                 (A) (A) (A) (A) (A) (A) (A) (A) (A) (A) (A) (A)
                 (A) (A) (A) (A) (A) (A) (A) (A) (A) (A) (A) (A)
                 (A) (A) (A) (A) (A) (A) (A) (A) (A) (A) (A) (A)
                 (A) (A) (A) (A) (A) (A) (A) (A) (A) (A) (A) (A)
                 (A) (A) (A) (A) (A) (A) (A) (A) (A) (A) (A) (A)
                 (A) (A) (A) (A) (A) (A) (A) (A) (A) (A) (A) (A)
                 (A) (A) (A) (A) (A) (A) (A) (A) (A) (A) (A) (A)
                 (A) (A) (A) (A) (A) (A) (A) (A) (A) (A) (A) (A)
                 (A) (A) (A) (A) (A) (A) (A) (A) (A) (A) (A) (A)
                 (A) (A) (A) (A) (A) (A) (A) (A) (A) (A) (A) (A)
                 (A) (A) (A) (A) (A) (A) (A) (A) (A) (A) (A) (A)
                 (A) (A) (A) (A) (A) (A) (A) (A) (A) (A) (A) (A)
                 (A) (A) (A) (A) (A) (A) (A) (A) (A) (A) (A) (A)
                 (A) (A) (A) (A) (A) (A) (A) (A) (A) (A) (A) (A)
                 (A) (A) (A) (A) (A) (A) (A) (A) (A) (A) (A) (A)
                 (A) (A) (A) (A) (A) (A) (A) (A) (A) (A) (A) (A)
                 (A) (A) (A) (A) (A)
    40 initial guesses have been made.
 Convergence on wavefunction:    0.000001000000000
 Davidson Disk Diagonalization:  ConvIn= 1.00D-06 SkipCon=T Conv= 1.00D-06.
 Max sub-space:  2000 roots to seek:    40 dimension of matrix:        25360
 Iteration     1 Dimension    40 NMult     0 NNew     40
 CISAX will form    40 AO SS matrices at one time.
 NMat=    40 NSing=    40 JSym2X= 0.
 FoFJK:  IHMeth= 1 ICntrl=       0 DoSepK=T KAlg= 0 I1Cent=           0 FoldK=F
 IRaf=         1 NMat=      80 IRICut=       1 DoRegI=T DoRafI=F ISym2E= 0 IDoP0=3 IntGTp=3.
 FoFCou: FMM=F IPFlag=           0 FMFlag=      100000 FMFlg1=           0
         NFxFlg=           0 DoJE=F BraDBF=F KetDBF=F FulRan=T
         wScrn=  0.000000 ICntrl=       500 IOpCl=  0 I1Cent=           0 NGrid=           0
         NMat0=   40 NMatS0=     40 NMatT0=    0 NMatD0=   40 NMtDS0=    0 NMtDT0=    0
 Symmetry not used in FoFCou.
 New state      2 was old state      6
 New state      3 was old state      2
 New state      4 was old state      3
 New state      5 was old state     17
 New state      6 was old state      4
 New state      7 was old state      5
 New state      9 was old state     11
 New state     10 was old state      9
 Excitation Energies [eV] at current iteration:
 Root      1 :     5.754462552799708
 Root      2 :     5.792361153226863
 Root      3 :     6.599453229192584
 Root      4 :     6.925845213987819
 Root      5 :     7.225178051058153
 Root      6 :     7.275747948099365
 Root      7 :     7.384530875267510
 Root      8 :     7.515559441554640
 Root      9 :     7.568016619221003
 Root     10 :     7.685958456888079
 Root     11 :     7.990380310480178
 Root     12 :     8.054910815672610
 Root     13 :     8.087272312560078
 Root     14 :     8.128439599333880
 Root     15 :     8.160313576264944
 Root     16 :     8.271210307518066
 Root     17 :     8.386844459012298
 Root     18 :     8.463256038499685
 Root     19 :     8.519961987326697
 Root     20 :     8.529066724935674
 Root     21 :     8.582175161354428
 Root     22 :     8.608489605046397
 Root     23 :     8.643204522406092
 Root     24 :     8.737198582479323
 Root     25 :     8.776397606028967
 Root     26 :     8.816423516874510
 Root     27 :     8.963413180833660
 Root     28 :     9.067325041652632
 Root     29 :     9.147620047997025
 Root     30 :     9.193696616463155
 Root     31 :     9.213674519684917
 Root     32 :     9.258837459858198
 Root     33 :     9.267883822891458
 Root     34 :     9.416471633562519
 Root     35 :     9.491762559719978
 Root     36 :     9.515878183676323
 Root     37 :     9.565239218573428
 Root     38 :     9.647288452400558
 Root     39 :     9.928546197157749
 Root     40 :     9.956515781562501
 Iteration     2 Dimension    60 NMult    40 NNew     20
 CISAX will form    20 AO SS matrices at one time.
 NMat=    20 NSing=    20 JSym2X= 0.
 Root      1 not converged, maximum delta is    0.055224633937513
 Root      2 not converged, maximum delta is    0.069523557452192
 New state      3 was old state      4
 Root      3 not converged, maximum delta is    0.120550459830561
 New state      4 was old state      3
 Root      4 not converged, maximum delta is    0.038679002535876
 New state      5 was old state      8
 Root      5 not converged, maximum delta is    0.149075401545557
 New state      6 was old state      5
 Root      6 not converged, maximum delta is    0.134531643875648
 New state      7 was old state      6
 Root      7 not converged, maximum delta is    0.068860029624989
 New state      8 was old state      7
 Root      8 not converged, maximum delta is    0.052734703552658
 Root      9 not converged, maximum delta is    0.129207662181470
 Root     10 not converged, maximum delta is    0.086568478748997
 Excitation Energies [eV] at current iteration:
 Root      1 :     5.080022155763972   Change is   -0.674440397035736
 Root      2 :     5.541822780900070   Change is   -0.250538372326793
 Root      3 :     6.306812201770228   Change is   -0.619033012217591
 Root      4 :     6.482984143525831   Change is   -0.116469085666753
 Root      5 :     6.798369152322355   Change is   -0.717190289232285
 Root      6 :     6.825402070650560   Change is   -0.399775980407593
 Root      7 :     7.139051606400015   Change is   -0.136696341699350
 Root      8 :     7.258699252126362   Change is   -0.125831623141147
 Root      9 :     7.422020765652764   Change is   -0.145995853568238
 Root     10 :     7.538663518813411   Change is   -0.147294938074668
 Iteration     3 Dimension    80 NMult    60 NNew     20
 CISAX will form    20 AO SS matrices at one time.
 NMat=    20 NSing=    20 JSym2X= 0.
 Root      1 not converged, maximum delta is    0.017916410838761
 Root      2 not converged, maximum delta is    0.008670022082349
 Root      3 not converged, maximum delta is    0.010732670682544
 Root      4 not converged, maximum delta is    0.003410328962389
 Root      5 not converged, maximum delta is    0.027086151122120
 Root      6 not converged, maximum delta is    0.034417875234495
 Root      7 not converged, maximum delta is    0.007061751350947
 Root      8 not converged, maximum delta is    0.008016678318653
 Root      9 not converged, maximum delta is    0.030573882677626
 Root     10 not converged, maximum delta is    0.064286062737680
 Excitation Energies [eV] at current iteration:
 Root      1 :     5.037763081569672   Change is   -0.042259074194300
 Root      2 :     5.534290633934569   Change is   -0.007532146965500
 Root      3 :     6.276443415181909   Change is   -0.030368786588319
 Root      4 :     6.481184655165405   Change is   -0.001799488360426
 Root      5 :     6.767296433160392   Change is   -0.031072719161963
 Root      6 :     6.792997014794625   Change is   -0.032405055855935
 Root      7 :     7.134158424781005   Change is   -0.004893181619010
 Root      8 :     7.253932195962606   Change is   -0.004767056163757
 Root      9 :     7.402148975150046   Change is   -0.019871790502718
 Root     10 :     7.526363946080855   Change is   -0.012299572732556
 Iteration     4 Dimension   100 NMult    80 NNew     20
 CISAX will form    20 AO SS matrices at one time.
 NMat=    20 NSing=    20 JSym2X= 0.
 Root      1 not converged, maximum delta is    0.002463764449049
 Root      2 not converged, maximum delta is    0.001932460267528
 Root      3 not converged, maximum delta is    0.004150797058100
 Root      4 not converged, maximum delta is    0.000443936742912
 Root      5 not converged, maximum delta is    0.003163683084487
 Root      6 not converged, maximum delta is    0.007738295635776
 Root      7 not converged, maximum delta is    0.001232186240898
 Root      8 not converged, maximum delta is    0.001802727870114
 Root      9 not converged, maximum delta is    0.013933360252442
 Root     10 not converged, maximum delta is    0.077630786287369
 Excitation Energies [eV] at current iteration:
 Root      1 :     5.034869648878169   Change is   -0.002893432691504
 Root      2 :     5.533451899716608   Change is   -0.000838734217962
 Root      3 :     6.272827533106351   Change is   -0.003615882075559
 Root      4 :     6.481115415488513   Change is   -0.000069239676892
 Root      5 :     6.764301929804806   Change is   -0.002994503355586
 Root      6 :     6.790212872591882   Change is   -0.002784142202743
 Root      7 :     7.133905227300838   Change is   -0.000253197480167
 Root      8 :     7.253593747641970   Change is   -0.000338448320636
 Root      9 :     7.399020704840631   Change is   -0.003128270309415
 Root     10 :     7.518373955054369   Change is   -0.007989991026486
 Iteration     5 Dimension   120 NMult   100 NNew     20
 CISAX will form    20 AO SS matrices at one time.
 NMat=    20 NSing=    20 JSym2X= 0.
 Root      1 not converged, maximum delta is    0.000503891382054
 Root      2 not converged, maximum delta is    0.000232976829411
 Root      3 not converged, maximum delta is    0.000836140962588
 Root      4 not converged, maximum delta is    0.000114935197713
 Root      5 not converged, maximum delta is    0.001187772579568
 Root      6 not converged, maximum delta is    0.001047688046917
 Root      7 not converged, maximum delta is    0.000598886113337
 Root      8 not converged, maximum delta is    0.000568521150698
 Root      9 not converged, maximum delta is    0.001988118887983
 Root     10 not converged, maximum delta is    0.023333845485349
 Excitation Energies [eV] at current iteration:
 Root      1 :     5.034712618519148   Change is   -0.000157030359021
 Root      2 :     5.533422181873264   Change is   -0.000029717843344
 Root      3 :     6.272571670109487   Change is   -0.000255862996863
 Root      4 :     6.481110864390257   Change is   -0.000004551098256
 Root      5 :     6.763971775409275   Change is   -0.000330154395531
 Root      6 :     6.790045538163480   Change is   -0.000167334428402
 Root      7 :     7.133882879032659   Change is   -0.000022348268179
 Root      8 :     7.253559419056132   Change is   -0.000034328585838
 Root      9 :     7.398801334369955   Change is   -0.000219370470677
 Root     10 :     7.516155181623270   Change is   -0.002218773431100
 Iteration     6 Dimension   140 NMult   120 NNew     20
 CISAX will form    20 AO SS matrices at one time.
 NMat=    20 NSing=    20 JSym2X= 0.
 Root      1 not converged, maximum delta is    0.000118299663591
 Root      2 not converged, maximum delta is    0.000047038705162
 Root      3 not converged, maximum delta is    0.000422631398023
 Root      4 not converged, maximum delta is    0.000047358803303
 Root      5 not converged, maximum delta is    0.000700773591499
 Root      6 not converged, maximum delta is    0.000148923068587
 Root      7 not converged, maximum delta is    0.000249783613897
 Root      8 not converged, maximum delta is    0.000404485793324
 Root      9 not converged, maximum delta is    0.000372054338983
 Root     10 not converged, maximum delta is    0.003475686066050
 Excitation Energies [eV] at current iteration:
 Root      1 :     5.034705404041945   Change is   -0.000007214477203
 Root      2 :     5.533421078366592   Change is   -0.000001103506672
 Root      3 :     6.272552232211414   Change is   -0.000019437898073
 Root      4 :     6.481110502628137   Change is   -0.000000361762119
 Root      5 :     6.763935395484118   Change is   -0.000036379925156
 Root      6 :     6.790033479814181   Change is   -0.000012058349300
 Root      7 :     7.133879300967696   Change is   -0.000003578064964
 Root      8 :     7.253552455031742   Change is   -0.000006964024390
 Root      9 :     7.398785080384700   Change is   -0.000016253985255
 Root     10 :     7.515866903031085   Change is   -0.000288278592184
 Iteration     7 Dimension   160 NMult   140 NNew     20
 CISAX will form    20 AO SS matrices at one time.
 NMat=    20 NSing=    20 JSym2X= 0.
 Root      1 not converged, maximum delta is    0.000019039115615
 Root      2 not converged, maximum delta is    0.000011907091486
 Root      3 not converged, maximum delta is    0.000143351951660
 Root      4 not converged, maximum delta is    0.000017468396555
 Root      5 not converged, maximum delta is    0.000213208985939
 Root      6 not converged, maximum delta is    0.000041432988043
 Root      7 not converged, maximum delta is    0.000076134270783
 Root      8 not converged, maximum delta is    0.000104743012607
 Root      9 not converged, maximum delta is    0.000093981524781
 Root     10 not converged, maximum delta is    0.001059560287040
 Excitation Energies [eV] at current iteration:
 Root      1 :     5.034705157362719   Change is   -0.000000246679226
 Root      2 :     5.533421029626088   Change is   -0.000000048740504
 Root      3 :     6.272550655000269   Change is   -0.000001577211145
 Root      4 :     6.481110463617779   Change is   -0.000000039010359
 Root      5 :     6.763931311820353   Change is   -0.000004083663765
 Root      6 :     6.790032740136063   Change is   -0.000000739678118
 Root      7 :     7.133878881741774   Change is   -0.000000419225922
 Root      8 :     7.253551395990073   Change is   -0.000001059041670
 Root      9 :     7.398783768737780   Change is   -0.000001311646920
 Root     10 :     7.515820989336916   Change is   -0.000045913694169
 Iteration     8 Dimension   180 NMult   160 NNew     20
 CISAX will form    20 AO SS matrices at one time.
 NMat=    20 NSing=    20 JSym2X= 0.
 Root      1 not converged, maximum delta is    0.000003454123080
 Root      2 not converged, maximum delta is    0.000001262008333
 Root      3 not converged, maximum delta is    0.000019985975442
 Root      4 not converged, maximum delta is    0.000004839717784
 Root      5 not converged, maximum delta is    0.000043929543687
 Root      6 not converged, maximum delta is    0.000011342818571
 Root      7 not converged, maximum delta is    0.000030514132326
 Root      8 not converged, maximum delta is    0.000019632823110
 Root      9 not converged, maximum delta is    0.000031162661266
 Root     10 not converged, maximum delta is    0.000245588511605
 Excitation Energies [eV] at current iteration:
 Root      1 :     5.034705148714635   Change is   -0.000000008648084
 Root      2 :     5.533421027561429   Change is   -0.000000002064659
 Root      3 :     6.272550546801045   Change is   -0.000000108199224
 Root      4 :     6.481110460659906   Change is   -0.000000002957873
 Root      5 :     6.763930960388955   Change is   -0.000000351431398
 Root      6 :     6.790032690281222   Change is   -0.000000049854841
 Root      7 :     7.133878825971508   Change is   -0.000000055770266
 Root      8 :     7.253551308821981   Change is   -0.000000087168091
 Root      9 :     7.398783642740772   Change is   -0.000000125997007
 Root     10 :     7.515815843477141   Change is   -0.000005145859775
 Iteration     9 Dimension   200 NMult   180 NNew     20
 CISAX will form    20 AO SS matrices at one time.
 NMat=    20 NSing=    20 JSym2X= 0.
 Root      1 has converged.
 Root      2 has converged.
 Root      3 not converged, maximum delta is    0.000005316970608
 Root      4 has converged.
 Root      5 not converged, maximum delta is    0.000010991313849
 Root      6 not converged, maximum delta is    0.000002171742987
 Root      7 not converged, maximum delta is    0.000009036351273
 Root      8 not converged, maximum delta is    0.000005289486742
 Root      9 not converged, maximum delta is    0.000009309115385
 Root     10 not converged, maximum delta is    0.000064435277963
 Excitation Energies [eV] at current iteration:
 Root      1 :     5.034705148397330   Change is   -0.000000000317305
 Root      2 :     5.533421027469319   Change is   -0.000000000092111
 Root      3 :     6.272550539984370   Change is   -0.000000006816675
 Root      4 :     6.481110460488479   Change is   -0.000000000171426
 Root      5 :     6.763930932441675   Change is   -0.000000027947279
 Root      6 :     6.790032686786887   Change is   -0.000000003494335
 Root      7 :     7.133878818662809   Change is   -0.000000007308699
 Root      8 :     7.253551302612833   Change is   -0.000000006209148
 Root      9 :     7.398783629575509   Change is   -0.000000013165264
 Root     10 :     7.515815356511140   Change is   -0.000000486966002
 Iteration    10 Dimension   214 NMult   200 NNew     14
 CISAX will form    14 AO SS matrices at one time.
 NMat=    14 NSing=    14 JSym2X= 0.
 Root      1 has converged.
 Root      2 has converged.
 Root      3 has converged.
 Root      4 has converged.
 Root      5 not converged, maximum delta is    0.000001555533017
 Root      6 has converged.
 Root      7 not converged, maximum delta is    0.000001512510736
 Root      8 not converged, maximum delta is    0.000001416517815
 Root      9 not converged, maximum delta is    0.000002336965569
 Root     10 not converged, maximum delta is    0.000031203185901
 Excitation Energies [eV] at current iteration:
 Root      1 :     5.034705148391191   Change is   -0.000000000006140
 Root      2 :     5.533421027468279   Change is   -0.000000000001040
 Root      3 :     6.272550539646002   Change is   -0.000000000338368
 Root      4 :     6.481110460484382   Change is   -0.000000000004097
 Root      5 :     6.763930930753414   Change is   -0.000000001688261
 Root      6 :     6.790032686545653   Change is   -0.000000000241234
 Root      7 :     7.133878818068425   Change is   -0.000000000594384
 Root      8 :     7.253551302164925   Change is   -0.000000000447908
 Root      9 :     7.398783628393092   Change is   -0.000000001182417
 Root     10 :     7.515815311583913   Change is   -0.000000044927226
 Iteration    11 Dimension   224 NMult   214 NNew     10
 CISAX will form    10 AO SS matrices at one time.
 NMat=    10 NSing=    10 JSym2X= 0.
 Root      1 has converged.
 Root      2 has converged.
 Root      3 has converged.
 Root      4 has converged.
 Root      5 has converged.
 Root      6 has converged.
 Root      7 has converged.
 Root      8 has converged.
 Root      9 has converged.
 Root     10 not converged, maximum delta is    0.000011084359111
 Excitation Energies [eV] at current iteration:
 Root      1 :     5.034705148390766   Change is   -0.000000000000424
 Root      2 :     5.533421027468175   Change is   -0.000000000000103
 Root      3 :     6.272550539640484   Change is   -0.000000000005517
 Root      4 :     6.481110460483926   Change is   -0.000000000000457
 Root      5 :     6.763930930649559   Change is   -0.000000000103855
 Root      6 :     6.790032686544540   Change is   -0.000000000001114
 Root      7 :     7.133878818026837   Change is   -0.000000000041588
 Root      8 :     7.253551302130472   Change is   -0.000000000034454
 Root      9 :     7.398783628286149   Change is   -0.000000000106943
 Root     10 :     7.515815306885993   Change is   -0.000000004697920
 Iteration    12 Dimension   226 NMult   224 NNew      2
 CISAX will form     2 AO SS matrices at one time.
 NMat=     2 NSing=     2 JSym2X= 0.
 Root      1 has converged.
 Root      2 has converged.
 Root      3 has converged.
 Root      4 has converged.
 Root      5 has converged.
 Root      6 has converged.
 Root      7 has converged.
 Root      8 has converged.
 Root      9 has converged.
 Root     10 not converged, maximum delta is    0.000002793910419
 Excitation Energies [eV] at current iteration:
 Root      1 :     5.034705148390652   Change is   -0.000000000000114
 Root      2 :     5.533421027468145   Change is   -0.000000000000030
 Root      3 :     6.272550539640393   Change is   -0.000000000000092
 Root      4 :     6.481110460483862   Change is   -0.000000000000063
 Root      5 :     6.763930930648550   Change is   -0.000000000001009
 Root      6 :     6.790032686544430   Change is   -0.000000000000109
 Root      7 :     7.133878818026813   Change is   -0.000000000000024
 Root      8 :     7.253551302130302   Change is   -0.000000000000169
 Root      9 :     7.398783628285871   Change is   -0.000000000000278
 Root     10 :     7.515815306411253   Change is   -0.000000000474740
 Iteration    13 Dimension   228 NMult   226 NNew      2
 CISAX will form     2 AO SS matrices at one time.
 NMat=     2 NSing=     2 JSym2X= 0.
 Root      1 has converged.
 Root      2 has converged.
 Root      3 has converged.
 Root      4 has converged.
 Root      5 has converged.
 Root      6 has converged.
 Root      7 has converged.
 Root      8 has converged.
 Root      9 has converged.
 Root     10 has converged.
 Excitation Energies [eV] at current iteration:
 Root      1 :     5.034705148390603   Change is   -0.000000000000049
 Root      2 :     5.533421027468145   Change is    0.000000000000000
 Root      3 :     6.272550539640366   Change is   -0.000000000000026
 Root      4 :     6.481110460483837   Change is   -0.000000000000025
 Root      5 :     6.763930930648283   Change is   -0.000000000000267
 Root      6 :     6.790032686544346   Change is   -0.000000000000085
 Root      7 :     7.133878818026767   Change is   -0.000000000000045
 Root      8 :     7.253551302130347   Change is    0.000000000000045
 Root      9 :     7.398783628285759   Change is   -0.000000000000112
 Root     10 :     7.515815306366681   Change is   -0.000000000044571
 Convergence achieved on expansion vectors.
 ***********************************************************************
 Excited states from <AA,BB:AA,BB> singles matrix:
 ***********************************************************************
 
 1PDM for each excited state written to RWF  633
 Ground to excited state transition densities written to RWF  633
 Ground to excited state transition electric dipole moments (Au):
       state          X           Y           Z        Dip. S.      Osc.
         1        -1.6834      0.4796     -0.0296      3.0647      0.3780
         2         0.0286      0.0074      0.0115      0.0010      0.0001
         3        -0.2258     -1.6053     -0.1402      2.6476      0.4069
         4         0.0029      0.0596     -0.1525      0.0268      0.0043
         5        -0.8148      0.8148      0.0394      1.3293      0.2203
         6        -0.0263      0.0842     -0.0176      0.0081      0.0013
         7         0.0165      0.0180     -0.1235      0.0159      0.0028
         8         0.0272      0.0196     -0.0811      0.0077      0.0014
         9         0.0021      0.0260      0.0711      0.0057      0.0010
        10         0.8925     -0.3992      0.0097      0.9561      0.1760
 Ground to excited state transition velocity dipole moments (Au):
       state          X           Y           Z        Dip. S.      Osc.
         1         0.3110     -0.0914      0.0052      0.1051      0.3787
         2        -0.0060     -0.0018     -0.0093      0.0001      0.0004
         3         0.0467      0.3671      0.0322      0.1380      0.3991
         4        -0.0005     -0.0140      0.0379      0.0016      0.0046
         5         0.1961     -0.1983     -0.0097      0.0779      0.2089
         6         0.0052     -0.0215      0.0061      0.0005      0.0014
         7        -0.0039     -0.0044      0.0311      0.0010      0.0026
         8        -0.0068     -0.0050      0.0205      0.0005      0.0012
         9        -0.0012     -0.0077     -0.0109      0.0002      0.0004
        10        -0.2398      0.1078     -0.0025      0.0691      0.1668
 Ground to excited state transition magnetic dipole moments (Au):
       state          X           Y           Z
         1         0.0417      0.0614     -1.7713
         2        -0.7394     -0.0163      0.0279
         3         0.0662     -0.0724      0.8143
         4         0.0807     -0.2347     -0.0495
         5        -0.0443     -0.0375     -0.5020
         6        -0.2727      0.6943     -0.0374
         7         0.3474      0.3763      0.0312
         8         0.1238      0.1363      0.0094
         9        -0.3595      0.2668     -0.0219
        10        -0.0063      0.0644      0.0848
 Ground to excited state transition velocity quadrupole moments (Au):
       state          XX          YY          ZZ          XY          XZ          YZ
         1         0.2941     -0.3502     -0.0140      0.7086     -0.0002      0.0202
         2         0.0525      0.0085     -0.0039      0.0149      0.0313     -0.0573
         3        -0.3216      1.1000      0.0592      0.5148      0.0346      0.0420
         4        -0.0101     -0.0276      0.0017     -0.0237      0.1999      0.0741
         5        -0.6331     -0.2775      0.0120      0.3019     -0.0327      0.0423
         6         0.0133      0.0602     -0.0090      0.0292     -0.0386     -0.0301
         7         0.0793     -0.0602     -0.0011      0.0204     -0.2681      0.2324
         8         0.0219      0.0600     -0.0417      0.0310     -0.1281      0.0296
         9         0.0379      0.0066     -0.0199     -0.0154     -0.0545     -0.0570
        10         0.1154     -0.1789     -0.1060     -0.1697      0.0670     -0.0513
 <0|del|b> * <b|rxdel|0> + <0|del|b> * <b|delr+rdel|0>
 Rotatory Strengths (R) in cgs (10**-40 erg-esu-cm/Gauss)
       state          XX          YY          ZZ    R(velocity)    E-M Angle
         1       -21.3021     12.1798      2.0643     -2.3527       90.18
         2        -0.5455      8.1063      7.0736      4.8781       59.61
         3         5.3959     22.5525    -19.5414      2.8023       89.48
         4         4.9223     -1.5775      0.7185      1.3544       82.32
         5         4.1107     10.5612     -4.3538      3.4393       88.53
         6       -22.4450     -2.7887    -21.7924    -15.6753      165.32
         7        -1.6822     -2.6256     -1.2574     -1.8551       97.29
         8        -0.6673     -1.9730     -0.9066     -1.1823      109.09
         9        -2.6719      0.7529     -1.6345     -1.1845      103.20
        10        -0.0942     16.8648      4.2995      7.0233       72.93
 1/2[<0|r|b>*<b|rxdel|0> + (<0|rxdel|b>*<b|r|0>)*]
 Rotatory Strengths (R) in cgs (10**-40 erg-esu-cm/Gauss)
       state          XX          YY          ZZ     R(length)
         1        49.5851    -20.8200    -37.0612     -2.7653
         2        14.9658      0.0859     -0.2268      4.9416
         3        10.5733    -82.1852     80.7103      3.0328
         4        -0.1650      9.8952     -5.3394      1.4636
         5       -25.5282     21.5925     13.9689      3.3444
         6        -5.0736    -41.3603     -0.4649    -15.6329
         7        -4.0531     -4.7901      2.7258     -2.0391
         8        -2.3811     -1.8880      0.5416     -1.2425
         9         0.5310     -4.9027      1.1016     -1.0900
        10         3.9505     18.1766     -0.5787      7.1828
  1/2[<0|del|b>*<b|r|0> + (<0|r|b>*<b|del|0>)*] (Au)
       state          X           Y           Z        Dip. S.   Osc.(frdel)
         1        -0.5236     -0.0438     -0.0002      0.5676      0.3784
         2        -0.0002     -0.0000     -0.0001      0.0003      0.0002
         3        -0.0106     -0.5893     -0.0045      0.6044      0.4029
         4        -0.0000     -0.0008     -0.0058      0.0066      0.0044
         5        -0.1597     -0.1616     -0.0004      0.3217      0.2145
         6        -0.0001     -0.0018     -0.0001      0.0021      0.0014
         7        -0.0001     -0.0001     -0.0038      0.0040      0.0027
         8        -0.0002     -0.0001     -0.0017      0.0019      0.0013
         9        -0.0000     -0.0002     -0.0008      0.0010      0.0006
        10        -0.2140     -0.0430     -0.0000      0.2570      0.1714

 Excitation energies and oscillator strengths:
 
 Excited State   1:      Singlet-A      5.0347 eV  246.26 nm  f=0.3780  <S**2>=0.000
      53 -> 54         0.69708
 
 Excited State   2:      Singlet-A      5.5334 eV  224.06 nm  f=0.0001  <S**2>=0.000
      49 -> 54        -0.16849
      52 -> 54         0.63591
      52 -> 56         0.18810
 
 Excited State   3:      Singlet-A      6.2726 eV  197.66 nm  f=0.4069  <S**2>=0.000
      53 -> 56         0.69206
 This state for optimization and/or second-order correction.
 Total Energy, E(TD-HF/TD-DFT) =  -759.660348900    
 Copying the excited state density for this state as the 1-particle RhoCI density.
 
 Excited State   4:      Singlet-A      6.4811 eV  191.30 nm  f=0.0043  <S**2>=0.000
      53 -> 55         0.64782
      53 -> 57         0.10002
      53 -> 58        -0.12116
      53 -> 62        -0.19555
 
 Excited State   5:      Singlet-A      6.7639 eV  183.30 nm  f=0.2203  <S**2>=0.000
      50 -> 54         0.50670
      51 -> 54        -0.45107
 
 Excited State   6:      Singlet-A      6.7900 eV  182.60 nm  f=0.0013  <S**2>=0.000
      47 -> 56         0.14550
      49 -> 54        -0.20994
      49 -> 56         0.43850
      52 -> 54        -0.13914
      52 -> 56         0.40577
 
 Excited State   7:      Singlet-A      7.1339 eV  173.80 nm  f=0.0028  <S**2>=0.000
      53 -> 57         0.62464
      53 -> 58         0.14178
      53 -> 60        -0.20251
      53 -> 62         0.10852
 
 Excited State   8:      Singlet-A      7.2536 eV  170.93 nm  f=0.0014  <S**2>=0.000
      53 -> 55         0.10836
      53 -> 57        -0.10207
      53 -> 58         0.64097
      53 -> 60         0.14039
 
 Excited State   9:      Singlet-A      7.3988 eV  167.57 nm  f=0.0010  <S**2>=0.000
      47 -> 54         0.11378
      49 -> 54         0.61117
      49 -> 56         0.13383
      52 -> 54         0.12423
      52 -> 56         0.20383
 
 Excited State  10:      Singlet-A      7.5158 eV  164.96 nm  f=0.1760  <S**2>=0.000
      50 -> 56        -0.29460
      51 -> 56         0.26971
      53 -> 59         0.53685
 SavETr:  write IOETrn=   770 NScale= 10 NData=  16 NLR=1 NState=   10 LETran=     190.
 The selected state is a singlet.
 CISGrd: IGrad=3 NXY=2 DFT=T
 CISAX will form     1 AO SS matrices at one time.
 NMat=     1 NSing=     1 JSym2X= 0.
 GePol: Maximum number of non-zero 1st derivatives   =     266
 GePol: Maximum number of non-zero 2nd derivatives   =     266
 Leave Link  914 at Thu Jan  5 15:02:29 2023, MaxMem=  1342177280 cpu:            6596.9 elap:             132.2
 (Enter /shared/gaussian/g16.b01/AVX2/g16/l1002.exe)
 Minotr:  Closed shell wavefunction.
          Computing CIS/TDA/TD derivatives.
          Using Z-Vector for PSCF gradient.
          Skipping F1 and S1 gradient terms here.
          IDoAtm=111111111111111111111111111
 NEqPCM:  Using equilibrium solvation (IEInf=0, Eps=  78.3553, EpsInf=   1.7778)
          Frozen-core window.
          Direct CPHF calculation.
          Differentiating once with respect to electric field.
                with respect to dipole field.
          Differentiating once with respect to nuclear coordinates.
          Requested convergence is 1.0D-10 RMS, and 1.0D-09 maximum.
          NewPWx=F KeepS1=T KeepF1=T KeepIn=T MapXYZ=F SortEE=F KeepMc=T.
 Two-electron integral symmetry used by symmetrizing perturbed Fock matrices.
          MDV=    1342177280 using IRadAn=       5.
          Solving linear equations separately, MaxMat=     350.
          There are     1 degrees of freedom in the 1st order CPHF.  IDoFFX=0 NUNeed=     1.
 FoFJK:  IHMeth= 1 ICntrl=       0 DoSepK=T KAlg= 0 I1Cent=           0 FoldK=F
 IRaf=         1 NMat=       1 IRICut=       1 DoRegI=T DoRafI=F ISym2E=-1 IDoP0=0 IntGTp=1.
 FoFCou: FMM=F IPFlag=           0 FMFlag=      100000 FMFlg1=           0
         NFxFlg=           0 DoJE=T BraDBF=F KetDBF=F FulRan=T
         wScrn=  0.000000 ICntrl=       500 IOpCl=  0 I1Cent=           0 NGrid=           0
         NMat0=    1 NMatS0=      1 NMatT0=    0 NMatD0=    1 NMtDS0=    0 NMtDT0=    0
 Petite list used in FoFCou.
 LinEq1:  Iter=  0 NonCon=     1 RMS=5.66D-03 Max=3.86D-01 NDo=     1
 AX will form     1 AO Fock derivatives at one time.
 LinEq1:  Iter=  1 NonCon=     1 RMS=1.45D-03 Max=7.49D-02 NDo=     1
 LinEq1:  Iter=  2 NonCon=     1 RMS=7.81D-04 Max=2.51D-02 NDo=     1
 LinEq1:  Iter=  3 NonCon=     1 RMS=3.51D-04 Max=1.48D-02 NDo=     1
 LinEq1:  Iter=  4 NonCon=     1 RMS=2.02D-04 Max=6.91D-03 NDo=     1
 LinEq1:  Iter=  5 NonCon=     1 RMS=1.02D-04 Max=5.78D-03 NDo=     1
 LinEq1:  Iter=  6 NonCon=     1 RMS=3.95D-05 Max=1.21D-03 NDo=     1
 LinEq1:  Iter=  7 NonCon=     1 RMS=2.41D-05 Max=1.29D-03 NDo=     1
 LinEq1:  Iter=  8 NonCon=     1 RMS=1.19D-05 Max=3.52D-04 NDo=     1
 LinEq1:  Iter=  9 NonCon=     1 RMS=5.46D-06 Max=2.06D-04 NDo=     1
 LinEq1:  Iter= 10 NonCon=     1 RMS=3.72D-06 Max=1.95D-04 NDo=     1
 LinEq1:  Iter= 11 NonCon=     1 RMS=1.23D-06 Max=2.79D-05 NDo=     1
 LinEq1:  Iter= 12 NonCon=     1 RMS=6.04D-07 Max=1.67D-05 NDo=     1
 LinEq1:  Iter= 13 NonCon=     1 RMS=2.52D-07 Max=8.74D-06 NDo=     1
 LinEq1:  Iter= 14 NonCon=     1 RMS=1.04D-07 Max=2.69D-06 NDo=     1
 LinEq1:  Iter= 15 NonCon=     1 RMS=5.86D-08 Max=1.64D-06 NDo=     1
 LinEq1:  Iter= 16 NonCon=     1 RMS=1.43D-08 Max=3.87D-07 NDo=     1
 LinEq1:  Iter= 17 NonCon=     1 RMS=5.49D-09 Max=6.52D-08 NDo=     1
 LinEq1:  Iter= 18 NonCon=     1 RMS=2.36D-09 Max=5.07D-08 NDo=     1
 LinEq1:  Iter= 19 NonCon=     1 RMS=1.09D-09 Max=2.93D-08 NDo=     1
 LinEq1:  Iter= 20 NonCon=     1 RMS=4.32D-10 Max=6.83D-09 NDo=     1
 LinEq1:  Iter= 21 NonCon=     1 RMS=1.33D-10 Max=2.44D-09 NDo=     1
 LinEq1:  Iter= 22 NonCon=     1 RMS=7.78D-11 Max=2.12D-09 NDo=     1
 LinEq1:  Iter= 23 NonCon=     1 RMS=2.51D-11 Max=1.21D-09 NDo=     1
 LinEq1:  Iter= 24 NonCon=     0 RMS=1.33D-11 Max=5.24D-10 NDo=     1
 Linear equations converged to 1.000D-10 1.000D-09 after    24 iterations.
          There are     1 degrees of freedom in the 1st order CPHF.  IDoFFX=0 NUNeed=     1.
 End of Minotr F.D. properties file   721 does not exist.
 End of Minotr F.D. properties file   722 does not exist.
 End of Minotr F.D. properties file   788 does not exist.
 Leave Link 1002 at Thu Jan  5 15:03:21 2023, MaxMem=  1342177280 cpu:            2550.3 elap:              51.4
 (Enter /shared/gaussian/g16.b01/AVX2/g16/l1101.exe)
 Using compressed Sx but separate Hx and Fx, NAtomX=    27.
 Will process     28 centers per pass.
 Leave Link 1101 at Thu Jan  5 15:03:21 2023, MaxMem=  1342177280 cpu:              18.8 elap:               0.4
 (Enter /shared/gaussian/g16.b01/AVX2/g16/l1102.exe)
 Use density number 6.
 Symmetrizing basis deriv contribution to polar:
 IMax=3 JMax=2 DiffMx= 0.00D+00
 Leave Link 1102 at Thu Jan  5 15:03:21 2023, MaxMem=  1342177280 cpu:               1.9 elap:               0.1
 (Enter /shared/gaussian/g16.b01/AVX2/g16/l1110.exe)
 Forming Gx(P) for the SCF density, NAtomX=    27.
 Integral derivatives from FoFJK, PRISM(SPDF).
 Do as many integral derivatives as possible in FoFJK.
 G2DrvN: MDV=    1342174984.
 G2DrvN: will do    28 centers at a time, making    1 passes.
 Calling FoFCou, ICntrl=  3107 FMM=F I1Cent=   0 AccDes= 0.00D+00.
 FoFJK:  IHMeth= 1 ICntrl=    3107 DoSepK=T KAlg= 0 I1Cent=           0 FoldK=F
 IRaf=         1 NMat=       1 IRICut=       1 DoRegI=T DoRafI=F ISym2E= 0 IDoP0=0 IntGTp=1.
 FoFCou: FMM=F IPFlag=           0 FMFlag=      100000 FMFlg1=           0
         NFxFlg=           0 DoJE=F BraDBF=F KetDBF=F FulRan=T
         wScrn=  0.000000 ICntrl=      3507 IOpCl=  0 I1Cent=           0 NGrid=           0
         NMat0=    1 NMatS0=      1 NMatT0=    0 NMatD0=    1 NMtDS0=    0 NMtDT0=    0
 Symmetry not used in FoFCou.
 NEqPCM:  Using equilibrium solvation (IEInf=0, Eps=  78.3553, EpsInf=   1.7778)
 G2PCM: DoFxE=T DoFxN=T DoGrad=T DoDP/DQ/DG/TGxP=FFFF NFrqRd=   0 IEInf=0 SqF1=F DoCFld=F IF1Alg=4.
 Forming Gx(P) for generalized density number  6 NAtomX=    27.
 Integral derivatives from FoFJK, PRISM(SPDF).
 Do as many integral derivatives as possible in FoFJK.
 G2DrvN: MDV=    1342174984.
 G2DrvN: will do    28 centers at a time, making    1 passes.
 Calling FoFCou, ICntrl=  3107 FMM=F I1Cent=   0 AccDes= 0.00D+00.
 NEqPCM:  Using equilibrium solvation (IEInf=0, Eps=  78.3553, EpsInf=   1.7778)
 G2PCM: DoFxE=T DoFxN=F DoGrad=F DoDP/DQ/DG/TGxP=FFFF NFrqRd=   0 IEInf=0 SqF1=F DoCFld=F IF1Alg=4.
 Forming Gx(T) for CIS/TDA/TD state  3 NAtomX=    27.
 Integral derivatives from FoFJK, PRISM(SPDF).
 Do as many integral derivatives as possible in FoFJK.
 G2DrvN: MDV=    1342174984.
 G2DrvN: will do    28 centers at a time, making    1 passes.
 Calling FoFCou, ICntrl=  3107 FMM=F I1Cent=   0 AccDes= 0.00D+00.
 NEqPCM:  Using equilibrium solvation (IEInf=0, Eps=  78.3553, EpsInf=   1.7778)
 G2PCM: DoFxE=T DoFxN=F DoGrad=F DoDP/DQ/DG/TGxP=FFFF NFrqRd=   0 IEInf=0 SqF1=T DoCFld=F IF1Alg=4.
 End of G2Drv F.D. properties file   721 does not exist.
 End of G2Drv F.D. properties file   722 does not exist.
 End of G2Drv F.D. properties file   788 does not exist.
 Leave Link 1110 at Thu Jan  5 15:04:24 2023, MaxMem=  1342177280 cpu:            3117.8 elap:              62.5
 (Enter /shared/gaussian/g16.b01/AVX2/g16/l1002.exe)
 Minotr:  Closed shell wavefunction.
          IDoAtm=111111111111111111111111111
 NEqPCM:  Using equilibrium solvation (IEInf=0, Eps=  78.3553, EpsInf=   1.7778)
          Frozen-core window.
          Direct CPHF calculation.
          Differentiating once with respect to electric field.
                with respect to dipole field.
          Differentiating once with respect to nuclear coordinates.
          Requested convergence is 1.0D-08 RMS, and 1.0D-07 maximum.
          Secondary convergence is 1.0D-12 RMS, and 1.0D-12 maximum.
          NewPWx=T KeepS1=T KeepF1=T KeepIn=T MapXYZ=F SortEE=F KeepMc=T.
         8369 words used for storage of precomputed grid.
 Two-electron integrals replicated using symmetry.
          MDV=    1342177280 using IRadAn=       1.
          Solving linear equations simultaneously, MaxMat=     350.
 FoF2E skips out because all densities are zero.
 CalDSu exits because no D1Ps are significant.
 FoFJK:  IHMeth= 1 ICntrl=       0 DoSepK=T KAlg= 0 I1Cent=           0 FoldK=F
 IRaf=         1 NMat=      81 IRICut=       1 DoRegI=T DoRafI=F ISym2E= 2 IDoP0=3 IntGTp=3.
          There are    84 degrees of freedom in the 1st order CPHF.  IDoFFX=6 NUNeed=    84.
     81 vectors produced by pass  0 Test12= 2.00D-14 1.19D-09 XBig12= 7.41D+01 5.27D+00.
 AX will form    81 AO Fock derivatives at one time.
     81 vectors produced by pass  1 Test12= 2.00D-14 1.19D-09 XBig12= 9.97D+00 4.21D-01.
     81 vectors produced by pass  2 Test12= 2.00D-14 1.19D-09 XBig12= 2.17D-01 5.63D-02.
     81 vectors produced by pass  3 Test12= 2.00D-14 1.19D-09 XBig12= 1.60D-03 3.52D-03.
     81 vectors produced by pass  4 Test12= 2.00D-14 1.19D-09 XBig12= 8.11D-06 2.28D-04.
     81 vectors produced by pass  5 Test12= 2.00D-14 1.19D-09 XBig12= 3.72D-08 1.49D-05.
     63 vectors produced by pass  6 Test12= 2.00D-14 1.19D-09 XBig12= 1.66D-10 9.93D-07.
     13 vectors produced by pass  7 Test12= 2.00D-14 1.19D-09 XBig12= 6.30D-13 9.29D-08.
[...]
 0008609,0.00016203,0.00002299,0.00006011,-0.00006027,0.00005155,0.0000
 5586,-0.00004716,-0.00006022,0.00001327,0.00000256,-0.00000049,0.15143
 090,-0.11114856,-0.07015466,0.00042220,0.00010629,0.00006561,0.0000427
 9,-0.00003234,0.00000040,0.00013005,-0.00892491,0.00006931,-0.15187322
 ,0.11865184,-0.00039233,-0.00124453,-0.00032942,-0.00006892,-0.0003178
 9,-0.00013404,0.00015043,0.00012129,0.00002684,-0.00017329,0.00008989,
 -0.00000743,0.00022705,-0.00015896,0.00006658,-0.00094803,0.00076704,0
 .00011934,0.00165134,0.00232504,0.00118283,-0.00029948,-0.00020871,0.0
 0009950,-0.00001139,-0.00001966,-0.00000469,0.00000328,0.00000768,-0.0
 0000149,0.00126587,0.00029251,-0.00042001,-0.00004051,0.00003826,-0.00
 001562,0.00002209,-0.00002793,0.00002974,0.00000987,-0.00002837,-0.000
 01174,0.00000201,-0.00001629,-0.00000280,0.05642876,-0.05251775,-0.076
 45200,0.00064140,0.00020167,-0.00000609,-0.00004805,-0.00000733,-0.000
 00664,-0.00182365,-0.00216327,0.00163417,-0.08818140,0.06728508,0.0925
 1392,-0.00103889,-0.00129578,0.00055767,0.00029642,-0.00033813,-0.0006
 7993,-0.00007493,0.00008884,0.00023453,0.00000731,-0.00002304,0.000053
 52,0.00005252,-0.00003077,-0.00031185,-0.00050135,0.00021125,0.0003734
 5,0.00123891,0.00149756,-0.00212268,-0.00009902,0.00008991,0.00025892,
 0.00000038,-0.00002974,0.00000810,-0.00000228,0.00000260,0.00000236,0.
 00032163,-0.00000745,-0.00009984,-0.00002099,-0.00000063,-0.00005641,0
 .00001568,-0.00000601,0.00004089,-0.00001324,-0.00001079,0.00003342,0.
 00000138,-0.00001284,-0.00000170,-0.05878640,-0.02530594,-0.11360279,0
 .00014425,-0.00006835,-0.00009388,-0.00002256,0.00000840,-0.00000160,-
 0.00010951,-0.00028168,0.00004750,0.00941358,0.00960664,0.03425604,0.0
 5110722,-0.00088174,-0.00035395,0.00039989,0.00005944,-0.00013870,-0.0
 0030046,-0.00009872,0.00002008,0.00014280,0.00005264,-0.00001035,0.000
 01989,-0.00000741,0.00003626,-0.00018650,-0.00001100,-0.00011481,0.000
 17703,0.00032968,-0.00031020,-0.00186005,0.00008862,0.00001058,0.00008
 756,-0.00000795,-0.00000893,0.00000080,0.00000054,-0.00000254,0.000001
 72,0.00006165,-0.00001457,0.00001937,0.00000055,-0.00000643,-0.0000297
 2,0.00000639,0.00000407,0.00002046,-0.00001172,0.00000549,0.00002426,0
 .00000109,0.00000116,0.00000006,-0.00813525,-0.06134750,-0.14260977,-0
 .00008786,0.00001008,-0.00000556,0.00001273,0.00000232,-0.00000157,-0.
 00005439,0.00011086,-0.00014342,-0.00718896,-0.00591112,-0.02036193,0.
 01466230,0.06768644,0.00118352,0.00131035,0.00019507,-0.00031612,0.000
 32677,-0.00025024,0.00004405,-0.00008788,0.00010120,0.00001989,0.00003
 442,0.00001618,0.00000471,0.00009237,-0.00008970,0.00036219,-0.0004640
 1,0.00012893,-0.00209490,-0.00196519,-0.00017959,0.00021418,-0.0001110
 9,0.00005012,-0.00001462,0.00003057,0.00001887,0.00000575,-0.00000437,
 -0.00000275,-0.00017637,0.00019977,-0.00004596,0.00001713,0.00000657,-
 0.00002016,0.00000582,0.00001497,0.00001576,-0.00001201,0.00000806,0.0
 0001950,0.00000125,0.00001695,0.00000131,-0.07378220,-0.16052660,-0.45
 488154,-0.00012137,-0.00002830,0.00001385,0.00004224,-0.00000379,-0.00
 000715,0.00005247,-0.00025636,0.00002284,-0.00631634,-0.00269852,-0.01
 291679,0.08229425,0.16308312,0.46852695,0.00166869,-0.00045048,0.00132
 078,-0.00461259,0.00300161,-0.00548946,0.00150027,-0.00067035,0.002532
 47,-0.00072429,-0.00016909,0.00067635,0.00005944,0.00012808,-0.0020964
 7,0.00002530,-0.00002980,0.00263341,-0.00122522,-0.00145092,-0.0000733
 7,-0.00151195,-0.01094720,0.00419042,0.00004369,0.00019698,0.00002790,
 0.00001115,0.00000125,-0.00002891,0.00044147,0.00016341,-0.00075815,0.
 00011459,0.00020525,-0.00038803,0.00012510,-0.00013018,0.00034710,-0.0
 0006313,-0.00019617,0.00020462,-0.00001648,-0.00002949,-0.00000751,-0.
 00744061,0.00696707,-0.00420194,-0.23473167,-0.21934175,0.09495179,-0.
 00058443,-0.00010995,-0.00014894,-0.00019384,-0.00038630,0.00002854,0.
 00173683,-0.00083524,-0.00277498,-0.00076537,0.00111095,0.00052947,0.6
 1323766,0.00151339,-0.00153118,0.00189815,-0.00424257,0.00514149,-0.00
 847450,0.00162658,-0.00074335,0.00335377,-0.00081807,-0.00031021,0.000
 86825,0.00018363,0.00014543,-0.00316690,-0.00079331,0.00053133,0.00403
 585,-0.00011075,0.00120086,-0.00046698,-0.00652750,-0.01160335,0.00639
 895,0.00005904,0.00018600,0.00010850,0.00000906,-0.00000051,-0.0000021
 4,0.00061795,-0.00006650,-0.00108465,0.00011100,0.00021151,-0.00060506
 ,0.00017617,-0.00014670,0.00049769,-0.00013027,-0.00025841,0.00033456,
 -0.00001980,-0.00005898,-0.00001489,0.00589360,-0.00155361,0.00251463,
 -0.17755167,-0.24075020,0.10913693,-0.00084677,-0.00008209,-0.00022565
 ,-0.00020892,-0.00000338,-0.00001764,-0.00054292,0.00061094,0.00164951
 ,0.00087080,-0.00093850,0.00000456,0.05773507,0.35362450,-0.00030494,0
 .00040493,0.00032361,0.00220387,-0.00135190,-0.00072334,-0.00048846,0.
 00045570,-0.00022807,0.00014395,0.00017765,0.00015180,0.00008791,-0.00
 002604,-0.00008664,0.00023491,-0.00019312,0.00008248,-0.00027648,-0.00
 067292,-0.00016676,0.00186825,0.00522591,0.00159160,-0.00006686,-0.000
 06721,-0.00000661,-0.00001181,0.00001742,0.00006370,-0.00028146,0.0001
 1370,-0.00004169,-0.00003337,-0.00003047,-0.00002719,-0.00001575,0.000
 04030,-0.00000921,-0.00000281,0.00004743,0.00002494,0.00000622,0.00001
 955,0.00000534,-0.00580102,0.00415284,0.00105110,0.07006046,0.10249025
 ,-0.05667726,0.00029581,0.00005357,0.00004993,0.00006961,-0.00008654,-
 0.00001232,0.00070335,-0.00031668,-0.00191249,0.00017735,-0.00006194,0
 .00048306,0.05060105,-0.18727355,0.12412393,-0.00109596,-0.00035031,-0
 .00012746,0.00119034,-0.00128406,-0.00037329,-0.00048938,-0.00006933,0
 .00035368,0.00002253,0.00010676,-0.00004274,0.00010763,-0.00013042,-0.
 00015801,-0.00006990,0.00004303,0.00028336,0.00174845,0.00105199,0.000
 42392,0.00133117,0.00197119,-0.00044755,-0.00000615,-0.00007142,-0.000
 00238,-0.00000078,0.00000878,-0.00003194,-0.00017502,-0.00016185,-0.00
 009910,-0.00004560,-0.00003153,-0.00004224,0.00001112,0.00003097,0.000
 02008,-0.00002961,0.00001729,0.00004732,0.00000488,0.00000440,-0.00000
 304,-0.00099833,-0.00282862,0.00102565,-0.03140616,0.01287698,-0.01183
 662,0.00015138,0.00003336,0.00000345,0.00010498,0.00040188,-0.00002504
 ,-0.00286089,0.00157147,0.00248811,0.00060279,-0.00100071,-0.00132189,
 -0.36717653,0.12142327,-0.11831158,0.39828479,0.00047891,0.00085827,-0
 .00004974,-0.00101870,-0.00008333,0.00024024,0.00013624,-0.00013911,-0
 .00012326,-0.00002649,0.00006791,0.00004360,-0.00006637,0.00007358,0.0
 0015766,0.00077651,-0.00052309,-0.00021275,-0.00108083,-0.00306065,0.0
 0057433,0.00066490,-0.00111486,0.00049977,-0.00001306,0.00004688,-0.00
 003446,0.00000581,-0.00000764,0.00001877,-0.00027857,0.00021054,0.0000
 2498,0.00003843,0.00002742,0.00002232,-0.00000856,0.00000035,-0.000018
 00,0.00001877,0.00000999,-0.00001960,-0.00000029,0.00002362,0.00000296
 ,-0.00105477,-0.00137972,-0.00018385,-0.02948154,0.01137688,-0.0093752
 6,0.00007572,-0.00000050,0.00000806,0.00001072,-0.00025056,0.00005188,
 0.00152854,-0.00181524,-0.00276683,-0.00152235,0.00187273,0.00022436,0
 .16420224,-0.10298973,0.07627960,-0.13243153,0.09568616,-0.00051636,-0
 .00041850,-0.00026121,0.00057923,-0.00024518,0.00041399,-0.00020264,0.
 00001477,-0.00004369,0.00004539,-0.00000768,-0.00009649,0.00000344,-0.
 00006780,0.00014123,-0.00029245,0.00021275,-0.00015977,0.00094010,0.00
 151649,0.00037002,-0.00010141,0.00087076,-0.00058503,0.00001380,-0.000
 03502,-0.00000782,-0.00000264,0.00000216,-0.00002030,0.00008311,-0.000
 16562,0.00003988,-0.00002217,-0.00002518,0.00002546,-0.00000386,0.0000
 0524,-0.00002010,-0.00000057,0.00000450,-0.00000918,0.00000066,-0.0000
 0895,-0.00000214,0.00292573,-0.00367239,-0.00564698,0.01223838,-0.0037
 6029,0.00536120,0.00000233,0.00000928,0.00001254,0.00002206,0.00028032
 ,-0.00000346,-0.00157422,0.00066830,0.00347519,-0.00107970,0.00119419,
 -0.00181998,-0.14265979,0.07055252,-0.06829356,0.12869229,-0.06580134,
 0.06769399,0.00296402,-0.00436054,0.00034176,-0.00810704,0.01248754,-0
 .00202886,0.00095640,0.00185849,0.00145630,-0.00013852,-0.00121272,0.0
 0010976,-0.00095646,0.00083517,-0.00117041,-0.00022747,0.00067674,0.00
 142695,-0.00073061,-0.00029689,-0.00010967,0.01089306,-0.00911803,0.00
 076716,0.00346730,0.00092845,0.00021541,-0.00000532,-0.00001017,-0.000
 03601,0.00214487,-0.00035570,-0.00040826,0.00021850,0.00025804,-0.0002
 0390,0.00014529,-0.00023705,0.00029476,-0.00001827,-0.00026362,0.00005
 339,-0.00004129,-0.00010862,-0.00001537,0.00034279,0.00026532,0.000071
 58,-0.00092328,-0.00153001,0.00053723,-0.30732019,-0.19164323,-0.04188
 946,-0.00068476,-0.00041826,0.00009236,-0.00007649,-0.00003818,0.00005
 396,0.00001635,-0.00002152,-0.00005188,0.00076590,0.00098060,-0.000347
 43,-0.00017800,-0.00005711,-0.00001381,0.31813141,0.00054497,-0.001146
 15,-0.00008738,0.00504082,-0.00013731,0.00013333,0.00008352,0.00096799
 ,0.00023336,-0.00122113,-0.00080294,-0.00015069,0.00059927,0.00004374,
 0.00007830,0.00073232,0.00053156,-0.00000330,0.00000964,0.00005721,0.0
 0003090,-0.00429897,-0.00570227,0.00000721,0.00161369,-0.00727699,-0.0
 0107284,0.00000793,0.00000880,0.00001214,-0.00083230,-0.00012345,-0.00
 001563,-0.00027744,0.00003619,0.00000346,0.00000512,0.00007578,-0.0000
 0442,0.00001567,0.00007187,-0.00000614,0.00002156,0.00001273,0.0000012
 2,-0.00003171,-0.00005589,-0.00000985,-0.00018292,0.00014234,-0.000063
 21,-0.22266528,-0.17236466,-0.05854223,0.00014846,0.00010051,-0.000018
 11,0.00000556,0.00001762,-0.00000201,-0.00000611,0.00000195,0.00000519
 ,-0.00000485,-0.00014507,0.00006656,0.00002043,0.00002215,-0.00001314,
 0.20821299,0.17992102,0.00035242,-0.00008526,-0.00254639,-0.00024138,-
 0.00061272,0.00913516,0.00025718,-0.00029452,-0.00316495,-0.00006793,0
 .00015260,-0.00083080,-0.00020365,-0.00054853,0.00329167,-0.00000162,0
 .00085944,-0.00406530,-0.00006830,-0.00006836,0.00000453,0.00006617,0.
 00038531,-0.00660071,-0.00037076,0.00020755,0.00109432,-0.00000093,-0.
 00000765,0.00002269,0.00037965,-0.00021967,0.00126872,-0.00004395,-0.0
 0000383,0.00072043,-0.00016069,-0.00010528,-0.00048529,0.00025176,0.00
 011353,-0.00047302,-0.00000689,-0.00001269,0.00001721,0.00003566,0.000
 01374,0.00002774,-0.00004472,-0.00018249,0.00007733,-0.07658773,-0.078
 49100,-0.04924978,-0.00006971,-0.00002814,0.00003607,-0.00002281,-0.00
 000767,0.00000804,0.00000959,0.00000354,0.00000450,0.00018906,0.000289
 64,-0.00007289,0.00000651,-0.00001851,-0.00001375,0.04829209,0.0594498
 3,0.04765429,-0.00007293,0.00026460,-0.00106024,0.00002190,-0.00086288
 ,0.00357723,0.00055642,-0.00019023,-0.00101388,-0.00004599,0.00024006,
 -0.00046864,-0.00009835,-0.00028307,0.00134609,-0.00016250,0.00027319,
 -0.00156376,0.00000246,-0.00003312,-0.00001325,-0.00132993,0.00023614,
 -0.00148033,-0.00169522,0.00068291,0.00012236,-0.00000287,0.00000725,-
 0.00004693,0.00029815,-0.00005797,0.00045899,0.00000389,-0.00001173,0.
 00030643,-0.00004561,-0.00005131,-0.00018855,0.00008509,0.00003596,-0.
 00018147,-0.00000439,-0.00000457,0.00000156,0.00000439,0.00000249,0.00
 001075,-0.00003339,-0.00000872,-0.00003541,-0.25418465,0.05090491,0.22
 075690,-0.00003166,-0.00001521,0.00000748,-0.00000646,-0.00000462,-0.0
 0000070,0.00000203,0.00000195,0.00000285,0.00004696,0.00004762,0.00001
 064,0.00000737,0.00000160,-0.00000559,-0.02101057,0.01253736,0.0280219
 8,0.27768237,-0.00020033,0.00040928,0.00040247,0.00011519,-0.00083611,
 -0.00128016,0.00177831,-0.00132479,0.00085841,0.00053503,0.00030169,0.
 00022499,-0.00010060,-0.00001661,-0.00051084,-0.00019861,-0.00024814,0
 .00043280,0.00003709,-0.00001134,0.00000693,-0.00148817,0.00030006,-0.
 00005565,-0.00157016,0.00214547,-0.00163356,-0.00001651,-0.00001185,0.
 00003316,0.00007167,0.00005834,-0.00009050,0.00010371,-0.00001352,-0.0
 0012107,0.00000761,0.00000698,0.00005509,-0.00003427,-0.00004625,0.000
 06176,-0.00000482,0.00000183,-0.00000408,0.00000335,0.00000817,-0.0000
 0255,0.00005147,0.00009298,0.00001806,0.08172280,-0.05325348,-0.108307
 68,-0.00000334,-0.00000239,-0.00000112,0.00000166,0.00000038,-0.000001
 01,-0.00000148,0.00000133,-0.00000050,-0.00002653,-0.00004971,-0.00000
 471,0.00000554,0.00000049,0.00000154,-0.01707456,0.00580817,0.01921198
 ,-0.06371771,0.04667506,-0.00021259,-0.00000639,0.00069001,0.00067500,
 0.00024085,-0.00227956,-0.00143777,0.00089186,0.00070558,-0.00031316,-
 0.00014201,0.00023101,0.00016877,0.00009574,-0.00086913,0.00010288,-0.
 00010744,0.00100837,0.00003732,0.00004208,0.00002621,-0.00154603,-0.00
 032709,0.00047344,0.00119462,-0.00151550,0.00006481,0.00000847,0.00000
 545,0.00002635,-0.00020593,0.00002634,-0.00028751,-0.00006206,0.000009
 96,-0.00019831,0.00003421,0.00004557,0.00012518,-0.00005496,-0.0000077
 3,0.00012644,0.00000706,0.00000704,-0.00000088,-0.00001812,-0.00001714
 ,-0.00001662,0.00007238,0.00009232,0.00001051,0.25752083,-0.08993655,-
 0.26785199,0.00005985,0.00003157,-0.00001091,0.00000691,0.00000611,-0.
 00000218,-0.00000738,-0.00000133,0.00000370,-0.00006950,-0.00008317,0.
 00000379,0.00000582,0.00000374,0.00000403,-0.00738075,-0.00004372,0.00
 416878,-0.24855726,0.09070503,0.26384106,-0.00440267,0.00226236,0.0001
 1681,0.00478277,0.00090691,0.00077877,-0.00232165,0.00022343,-0.000427
 34,0.00228446,-0.00213427,0.00008322,-0.00307210,0.00127564,-0.0000959
 3,0.00538556,-0.00539883,-0.00060697,0.00134797,0.00057470,-0.00008916
 ,-0.00121520,0.00053145,-0.00009317,0.00036682,-0.00018344,0.00000630,
 -0.00013675,-0.00003743,0.00004988,-0.01542522,-0.00962162,0.00359617,
 0.00017682,-0.00054836,0.00005657,-0.00026462,0.00018852,-0.00027953,-
 0.00011095,0.00017755,0.00008711,-0.00004417,-0.00007747,-0.00000385,-
 0.00981077,0.01458537,0.00807609,0.00009651,-0.00020555,0.00007521,-0.
 00038302,0.00009817,-0.00000061,-0.20396188,-0.21846756,0.00341746,-0.
 00251457,-0.00953932,-0.00410747,-0.00180375,0.00102251,-0.00059175,-0
 .00072096,0.00055967,-0.00049529,0.00095933,-0.00092143,0.00089907,0.0
 0037887,-0.00008020,0.00002201,0.00001240,0.00000448,-0.00002785,0.335
 85220,-0.00308867,0.00306199,-0.00010468,0.00384110,0.00136257,0.00185
 485,-0.00214946,0.00000072,-0.00082864,0.00219467,-0.00185460,-0.00002
 795,-0.00287616,0.00119427,0.00062379,0.00434881,-0.00588119,-0.001018
 42,-0.00163550,-0.00199898,-0.00027034,-0.00072216,0.00050817,-0.00045
 964,0.00031156,-0.00011444,-0.00000094,-0.00010921,-0.00005297,0.00004
 554,-0.01528233,-0.00374653,0.00325023,0.00018149,-0.00047992,0.000136
 69,-0.00028080,0.00020542,-0.00035191,-0.00003753,0.00018894,-0.000014
 45,-0.00002733,-0.00003820,-0.00000009,0.01507427,-0.01024586,-0.00955
 687,-0.00034634,-0.00028969,0.00006305,-0.00024551,0.00008513,0.000016
 19,-0.20088731,-0.25685100,-0.02127740,-0.00735959,0.00081190,0.009338
 25,0.00199690,-0.00071140,0.00063095,0.00091050,-0.00033651,0.00043933
 ,-0.00102791,0.00090728,-0.00092301,0.00023359,-0.00006169,-0.00000692
 ,0.00000293,0.00000427,-0.00001308,0.22038932,0.30855028,0.00101429,-0
 .00034099,-0.00012629,-0.00077302,-0.00019224,0.00123627,0.00023331,-0
 .00010782,-0.00056761,-0.00027869,0.00046568,0.00004331,0.00060302,-0.
 00032536,0.00041183,-0.00090484,0.00150459,-0.00074676,-0.00071564,-0.
 00049705,-0.00018796,0.00026217,-0.00003872,-0.00033366,-0.00005682,0.
 00003648,-0.00003270,0.00004296,-0.00001305,0.00002038,0.00465048,0.00
 274549,0.00301552,-0.00006398,0.00010293,0.00017219,-0.00003776,-0.000
 02567,-0.00010521,0.00013557,0.00001786,-0.00016577,0.00001516,0.00002
 217,0.00000711,0.00967394,-0.00931067,0.00025833,-0.00010682,0.0000076
 8,-0.00003219,0.00008662,-0.00001662,0.00002074,0.03131919,0.01301332,
 -0.04505871,-0.00314588,0.00675825,-0.00555675,-0.00021533,0.00031754,
 0.00058865,0.00050840,-0.00026822,0.00034051,-0.00059704,0.00050531,-0
 .00060717,-0.00009321,0.00001821,-0.00003115,-0.00000813,0.00000122,0.
 00001014,-0.22188534,0.03756653,0.48416170,0.00011262,0.00000678,0.000
 05015,-0.00014421,-0.00001692,-0.00030295,0.00008419,0.00000221,0.0001
 2001,-0.00010270,0.00002440,0.00000558,-0.00001602,-0.00000264,-0.0001
 2124,0.00010782,-0.00019811,0.00022351,0.00000736,-0.00002616,0.000045
 88,0.00002313,-0.00000350,0.00007361,-0.00000659,0.00000339,0.00001198
 ,-0.00000684,0.00000693,-0.00000340,-0.00074130,-0.00082973,-0.0005823
 0,0.00000687,0.00001153,-0.00002749,0.00001849,-0.00000199,0.00002823,
 -0.00001835,-0.00001174,0.00002961,-0.00000206,-0.00000136,-0.00000075
 ,-0.00023683,0.00083384,-0.00015894,0.00000232,0.00000430,0.00000810,0
 .00000725,-0.00000135,-0.00000558,-0.01066472,0.00532975,0.02780497,-0
 .00137816,-0.00032433,0.00166998,0.00001787,0.00009618,0.00001968,-0.0
 0000998,-0.00001490,-0.00002615,0.00000556,0.00002321,0.00002962,-0.00
 000649,0.00000160,0.00000698,0.00000109,-0.00000080,-0.00000076,-0.105
 45541,-0.01340933,0.18033738,0.11839510,-0.00008006,0.00024549,0.00013
 279,0.00011985,0.00014005,-0.00028894,-0.00004331,-0.00000440,0.000111
 10,0.00006290,-0.00011192,0.00001900,-0.00017148,0.00011732,-0.0001997
 8,0.00030249,-0.00057103,0.00017126,-0.00025659,-0.00023275,-0.0000695
 3,-0.00000913,0.00000758,0.00007228,0.00001237,-0.00000062,0.00001375,
 -0.00001149,0.00000359,-0.00000401,-0.00165666,-0.00089393,-0.00039528
 ,0.00002877,-0.00002843,-0.00002730,0.00000325,0.00000623,0.00002290,-
 0.00003771,-0.00000130,0.00004069,-0.00000210,-0.00000235,0.00000035,0
 .00313326,-0.00283029,-0.00020786,-0.00003758,-0.00002594,0.00000687,-
 0.00000861,0.00000297,-0.00000294,-0.01181193,0.00387638,0.03125329,-0
 .00234398,0.00418725,-0.00227377,-0.00009410,0.00010565,0.00015763,0.0
 0015588,-0.00008406,0.00010036,-0.00017965,0.00018019,-0.00018873,0.00
 000930,-0.00000321,0.00000606,0.00000219,-0.00000032,-0.00000252,0.004
 41538,-0.03421799,-0.05194685,0.00849872,0.03013585,-0.00041402,0.0002
 4395,0.00001121,0.00042000,0.00007671,0.00013037,-0.00017702,0.0000218
 8,-0.00007220,0.00020385,-0.00018531,0.00003496,-0.00022234,0.00009918
 ,-0.00003162,0.00037674,-0.00023492,-0.00010550,0.00014949,0.00000534,
 -0.00000883,-0.00010106,0.00005889,-0.00003796,0.00002854,-0.00001476,
 0.00000667,-0.00000976,-0.00000575,0.00000588,-0.00109998,-0.00091804,
 0.00036277,0.00001666,-0.00005407,0.00002056,-0.00002644,0.00001546,-0
 .00003254,-0.00000354,0.00001272,-0.00000310,-0.00000386,-0.00000739,0
 .00000311,-0.00139086,0.00131391,0.00082170,-0.00000069,-0.00002555,0.
 00001169,-0.00003226,0.00000769,-0.00000076,-0.00144302,-0.00276658,-0
 .00321703,0.00153760,-0.00208039,-0.00137594,-0.00007452,0.00007002,0.
 00002336,-0.00004433,0.00003984,-0.00003776,0.00006974,-0.00005393,0.0
 0005309,0.00003631,-0.00000702,0.00000254,0.00000085,0.,-0.00000233,0.
 21143961,-0.01911105,-0.43673477,-0.20923571,0.02349917,0.44017246\\0.
 02024914,-0.03294570,-0.00142024,0.06490010,-0.00342674,0.00250643,-0.
 02965770,-0.08875890,-0.00878348,-0.06500582,0.04725546,0.00027623,0.0
 2604875,-0.04843099,-0.00417720,0.00762060,0.07748071,0.00901398,-0.00
 068248,-0.00283539,-0.00028620,-0.03178004,0.05995496,0.00288914,-0.00
 389113,-0.00172725,0.00013731,0.00002526,-0.00033845,-0.00010000,0.018
 26978,-0.01545176,-0.00095027,-0.01447520,0.01004446,0.00032943,0.0035
 0860,0.00014359,0.00170985,0.00345984,0.00038206,-0.00108851,0.0001594
 7,0.00035011,0.00002650,0.00087705,0.00068949,0.00013112,-0.00235487,-
 0.00326937,0.00050802,-0.00164565,-0.00109861,-0.00033577,0.00008762,0
 .00010052,-0.00022676,-0.00037240,0.00010317,0.00023512,0.00007597,-0.
 00004312,-0.00012124,0.00166881,0.00185921,-0.00050307,-0.00020824,-0.
 00009345,0.00000656,0.00305343,0.00057685,0.00023319,0.00005229,-0.000
 29638,0.00000853,0.00001687,-0.00018415,-0.00002682,-0.00000002,-0.000
 04033,0.00000815\\\@


 In the race for quality, there is no finish line.
                               -- David T. Kearns
 Job cpu time:       0 days  8 hours 47 minutes  0.1 seconds.
 Elapsed time:       0 days  0 hours 10 minutes 35.0 seconds.
 File lengths (MBytes):  RWF=   1804 Int=      0 D2E=      0 Chk=     62 Scr=      1
 Normal termination of Gaussian 16 at Thu Jan  5 15:10:30 2023.
