 Entering Gaussian System, Link 0=/shared/gaussian/g16.b01/AVX2/g16/g16
 Initial command:
 /shared/gaussian/g16.b01/AVX2/g16/l1.exe "/scratch/marlene/SCRGAU.151137.Thymine6311-freq-solv-ES6/Gau-31395.inp" -scrdir="/scratch/marlene/SCRGAU.151137.Thymine6311-freq-solv-ES6/"
 Entering Link 1 = /shared/gaussian/g16.b01/AVX2/g16/l1.exe PID=     31396.
  
 Copyright (c) 1988-2017, Gaussian, Inc.  All Rights Reserved.
  
 This is part of the Gaussian(R) 16 program.  It is based on
 the Gaussian(R) 09 system (copyright 2009, Gaussian, Inc.),
 the Gaussian(R) 03 system (copyright 2003, Gaussian, Inc.),
 the Gaussian(R) 98 system (copyright 1998, Gaussian, Inc.),
 the Gaussian(R) 94 system (copyright 1995, Gaussian, Inc.),
 the Gaussian 92(TM) system (copyright 1992, Gaussian, Inc.),
 the Gaussian 90(TM) system (copyright 1990, Gaussian, Inc.),
 the Gaussian 88(TM) system (copyright 1988, Gaussian, Inc.),
 the Gaussian 86(TM) system (copyright 1986, Carnegie Mellon
 University), and the Gaussian 82(TM) system (copyright 1983,
 Carnegie Mellon University). Gaussian is a federally registered
 trademark of Gaussian, Inc.
  
 This software contains proprietary and confidential information,
 including trade secrets, belonging to Gaussian, Inc.
  
 This software is provided under written license and may be
 used, copied, transmitted, or stored only in accord with that
 written license.
  
 The following legend is applicable only to US Government
 contracts under FAR:
  
                    RESTRICTED RIGHTS LEGEND
  
 Use, reproduction and disclosure by the US Government is
 subject to restrictions as set forth in subparagraphs (a)
 and (c) of the Commercial Computer Software - Restricted
 Rights clause in FAR 52.227-19.
  
 Gaussian, Inc.
 340 Quinnipiac St., Bldg. 40, Wallingford CT 06492
  
  
 ---------------------------------------------------------------
 Warning -- This program may not be used in any manner that
 competes with the business of Gaussian, Inc. or will provide
 assistance to any competitor of Gaussian, Inc.  The licensee
 of this program is prohibited from giving any competitor of
 Gaussian, Inc. access to this program.  By using this program,
 the user acknowledges that Gaussian, Inc. is engaged in the
 business of creating and licensing software in the field of
 computational chemistry and represents and warrants to the
 licensee that it is not a competitor of Gaussian, Inc. and that
 it will not use this program in any manner prohibited above.
 ---------------------------------------------------------------
  

 Cite this work as:
 Gaussian 16, Revision B.01,
 M. J. Frisch, G. W. Trucks, H. B. Schlegel, G. E. Scuseria, 
 M. A. Robb, J. R. Cheeseman, G. Scalmani, V. Barone, 
 G. A. Petersson, H. Nakatsuji, X. Li, M. Caricato, A. V. Marenich, 
 J. Bloino, B. G. Janesko, R. Gomperts, B. Mennucci, H. P. Hratchian, 
 J. V. Ortiz, A. F. Izmaylov, J. L. Sonnenberg, D. Williams-Young, 
 F. Ding, F. Lipparini, F. Egidi, J. Goings, B. Peng, A. Petrone, 
 T. Henderson, D. Ranasinghe, V. G. Zakrzewski, J. Gao, N. Rega, 
 G. Zheng, W. Liang, M. Hada, M. Ehara, K. Toyota, R. Fukuda, 
 J. Hasegawa, M. Ishida, T. Nakajima, Y. Honda, O. Kitao, H. Nakai, 
 T. Vreven, K. Throssell, J. A. Montgomery, Jr., J. E. Peralta, 
 F. Ogliaro, M. J. Bearpark, J. J. Heyd, E. N. Brothers, K. N. Kudin, 
 V. N. Staroverov, T. A. Keith, R. Kobayashi, J. Normand, 
 K. Raghavachari, A. P. Rendell, J. C. Burant, S. S. Iyengar, 
 J. Tomasi, M. Cossi, J. M. Millam, M. Klene, C. Adamo, R. Cammi, 
 J. W. Ochterski, R. L. Martin, K. Morokuma, O. Farkas, 
 J. B. Foresman, and D. J. Fox, Gaussian, Inc., Wallingford CT, 2016.
 
 ******************************************
 Gaussian 16:  ES64L-G16RevB.01 20-Dec-2017
                 5-Jan-2023 
 ******************************************
 %nprocshared=50
 Will use up to   50 processors via shared memory.
 %mem=10GB
 %chk=Thymine6311-freq-solv-ES6.chk
 ----------------------------------------------------------------------
 #p freq td=(nstates=10,root=6) cam-b3lyp/6-311+g(d,p) scrf=(solvent=wa
 ter,pcm) symm=loose
 ----------------------------------------------------------------------
 1/10=4,30=1,38=1/1,3;
 2/12=2,17=4,18=3,40=1/2;
 3/5=4,6=6,7=111,11=9,25=1,30=1,70=2201,71=2,72=1,74=-40,140=1/1,2,3,8;
 4//1;
 5/5=2,38=5,53=1,98=1/2;
 8/6=1,10=2,107=6,108=10/1;
 9/8=6,15=3,41=10,42=1,70=2/14;
 10/5=2004,20=4,28=6/2;
 11/6=1,8=1,12=-6,16=1,42=3/1,2,10;
 10/6=3,21=1,28=6/2,14;
 6/7=2,8=2,9=2,10=2/1;
 7/8=1,10=1,12=6,13=8,14=6,25=1,44=2/1,2,3,16;
 1/10=4,30=1/3;
 99//99;
 Leave Link    1 at Thu Jan  5 15:11:37 2023, MaxMem=  1342177280 cpu:               2.3 elap:               0.1
 (Enter /shared/gaussian/g16.b01/AVX2/g16/l101.exe)
 --------------------
 Thymine solvated ES6
 --------------------
 Symbolic Z-matrix:
 Charge =  0 Multiplicity = 1
 N                    -0.23117  -0.03514  -0.18765 
 C                     1.09637  -0.362    -0.13809 
 N                     1.94349   0.69304   0.00033 
 C                     1.50712   1.98844   0.09405 
 C                     0.20304   2.31854   0.06272 
 C                    -0.75796   1.242    -0.07949 
 H                    -0.88878  -0.81343  -0.33326 
 O                     1.49365  -1.52662  -0.21212 
 H                     2.93788   0.46073   0.03201 
 H                     2.28981   2.72781   0.1993 
 O                    -1.97581   1.4124   -0.10838 
 C                    -0.29892   3.72357   0.17089 
 H                    -0.87752   4.00063  -0.71272 
 H                    -0.95505   3.8378    1.03618 
 H                     0.53193   4.42132   0.27266 
 O                    -2.15696  -2.18939  -0.54554 
 H                     0.53502  -3.05163   0.41374 
 O                     4.21976  -1.0042    0.05234 
 H                    -3.35011   0.32965   0.14121 
 H                    -2.95662  -1.6966   -0.24879 
 H                    -2.33746  -2.49334  -1.44134 
 O                    -0.11605  -3.71234   0.69918 
 H                    -0.9538   -3.34536   0.37493 
 H                     3.43773  -1.55482  -0.12499 
 H                     4.87117  -1.22696  -0.61977 
 O                    -4.00852  -0.39484   0.18979 
 H                    -4.41687  -0.34438   1.0594 
 
 ITRead=  0  0  0  0  0  0  0  0  0  0  0  0  0  0  0  0  0  0  0  0
 ITRead=  0  0  0  0  0  0  0
 MicOpt= -1 -1 -1 -1 -1 -1 -1 -1 -1 -1 -1 -1 -1 -1 -1 -1 -1 -1 -1 -1
 MicOpt= -1 -1 -1 -1 -1 -1 -1
 NAtoms=     27 NQM=       27 NQMF=       0 NMMI=      0 NMMIF=      0
                NMic=       0 NMicF=      0.
                    Isotopes and Nuclear Properties:
 (Nuclear quadrupole moments (NQMom) in fm**2, nuclear magnetic moments (NMagM)
  in nuclear magnetons)

  Atom         1           2           3           4           5           6           7           8           9          10
 IAtWgt=          14          12          14          12          12          12           1          16           1           1
 AtmWgt=  14.0030740  12.0000000  14.0030740  12.0000000  12.0000000  12.0000000   1.0078250  15.9949146   1.0078250   1.0078250
 NucSpn=           2           0           2           0           0           0           1           0           1           1
 AtZEff=  -0.0000000  -0.0000000  -0.0000000  -0.0000000  -0.0000000  -0.0000000  -0.0000000  -0.0000000  -0.0000000  -0.0000000
 NQMom=    2.0440000   0.0000000   2.0440000   0.0000000   0.0000000   0.0000000   0.0000000   0.0000000   0.0000000   0.0000000
 NMagM=    0.4037610   0.0000000   0.4037610   0.0000000   0.0000000   0.0000000   2.7928460   0.0000000   2.7928460   2.7928460
 AtZNuc=   7.0000000   6.0000000   7.0000000   6.0000000   6.0000000   6.0000000   1.0000000   8.0000000   1.0000000   1.0000000

  Atom        11          12          13          14          15          16          17          18          19          20
 IAtWgt=          16          12           1           1           1          16           1          16           1           1
 AtmWgt=  15.9949146  12.0000000   1.0078250   1.0078250   1.0078250  15.9949146   1.0078250  15.9949146   1.0078250   1.0078250
 NucSpn=           0           0           1           1           1           0           1           0           1           1
 AtZEff=  -0.0000000  -0.0000000  -0.0000000  -0.0000000  -0.0000000  -0.0000000  -0.0000000  -0.0000000  -0.0000000  -0.0000000
 NQMom=    0.0000000   0.0000000   0.0000000   0.0000000   0.0000000   0.0000000   0.0000000   0.0000000   0.0000000   0.0000000
 NMagM=    0.0000000   0.0000000   2.7928460   2.7928460   2.7928460   0.0000000   2.7928460   0.0000000   2.7928460   2.7928460
 AtZNuc=   8.0000000   6.0000000   1.0000000   1.0000000   1.0000000   8.0000000   1.0000000   8.0000000   1.0000000   1.0000000

  Atom        21          22          23          24          25          26          27
 IAtWgt=           1          16           1           1           1          16           1
 AtmWgt=   1.0078250  15.9949146   1.0078250   1.0078250   1.0078250  15.9949146   1.0078250
 NucSpn=           1           0           1           1           1           0           1
 AtZEff=  -0.0000000  -0.0000000  -0.0000000  -0.0000000  -0.0000000  -0.0000000  -0.0000000
 NQMom=    0.0000000   0.0000000   0.0000000   0.0000000   0.0000000   0.0000000   0.0000000
 NMagM=    2.7928460   0.0000000   2.7928460   2.7928460   2.7928460   0.0000000   2.7928460
 AtZNuc=   1.0000000   8.0000000   1.0000000   1.0000000   1.0000000   8.0000000   1.0000000
 Leave Link  101 at Thu Jan  5 15:11:37 2023, MaxMem=  1342177280 cpu:               5.9 elap:               0.1
 (Enter /shared/gaussian/g16.b01/AVX2/g16/l103.exe)

 GradGradGradGradGradGradGradGradGradGradGradGradGradGradGradGradGradGrad
 Berny optimization.
 Initialization pass.
 Trust Radius=3.00D-01 FncErr=1.00D-07 GrdErr=1.00D-07 EigMax=2.50D+02 EigMin=1.00D-04
 Number of steps in this run=      2 maximum allowed number of steps=      2.
 GradGradGradGradGradGradGradGradGradGradGradGradGradGradGradGradGradGrad

 Leave Link  103 at Thu Jan  5 15:11:37 2023, MaxMem=  1342177280 cpu:               1.0 elap:               0.0
 (Enter /shared/gaussian/g16.b01/AVX2/g16/l202.exe)
                          Input orientation:                          
 ---------------------------------------------------------------------
 Center     Atomic      Atomic             Coordinates (Angstroms)
 Number     Number       Type             X           Y           Z
 ---------------------------------------------------------------------
      1          7           0       -0.231165   -0.035141   -0.187654
      2          6           0        1.096368   -0.361997   -0.138091
      3          7           0        1.943485    0.693041    0.000329
      4          6           0        1.507124    1.988439    0.094046
      5          6           0        0.203040    2.318540    0.062719
      6          6           0       -0.757961    1.241995   -0.079486
      7          1           0       -0.888783   -0.813428   -0.333259
      8          8           0        1.493654   -1.526624   -0.212117
      9          1           0        2.937877    0.460730    0.032007
     10          1           0        2.289814    2.727806    0.199297
     11          8           0       -1.975809    1.412395   -0.108376
     12          6           0       -0.298918    3.723573    0.170889
     13          1           0       -0.877521    4.000626   -0.712721
     14          1           0       -0.955053    3.837803    1.036180
     15          1           0        0.531929    4.421320    0.272664
     16          8           0       -2.156963   -2.189392   -0.545540
     17          1           0        0.535018   -3.051632    0.413739
     18          8           0        4.219759   -1.004202    0.052340
     19          1           0       -3.350109    0.329652    0.141206
     20          1           0       -2.956623   -1.696599   -0.248786
     21          1           0       -2.337462   -2.493339   -1.441344
     22          8           0       -0.116054   -3.712336    0.699184
     23          1           0       -0.953795   -3.345363    0.374927
     24          1           0        3.437732   -1.554817   -0.124989
     25          1           0        4.871171   -1.226960   -0.619765
     26          8           0       -4.008523   -0.394843    0.189792
     27          1           0       -4.416871   -0.344381    1.059404
 ---------------------------------------------------------------------
                    Distance matrix (angstroms):
                    1          2          3          4          5
     1  N    0.000000
     2  C    1.368077   0.000000
     3  N    2.301019   1.360100   0.000000
     4  C    2.682514   2.397323   1.370128   0.000000
     5  C    2.406457   2.832603   2.382286   1.345579   0.000000
     6  C    1.385746   2.452501   2.757813   2.391214   1.450067
     7  H    1.029268   2.045166   3.225286   3.711256   3.340374
     8  O    2.280377   1.232750   2.274729   3.528397   4.065280
     9  H    3.215115   2.024097   1.021659   2.093991   3.306317
    10  H    3.760178   3.329418   2.073596   1.081825   2.130910
    11  O    2.268354   3.547904   3.986245   3.536046   2.365958
    12  C    3.776384   4.328299   3.773803   2.505670   1.495921
    13  H    4.120787   4.822750   4.405296   3.222779   2.144372
    14  H    4.125709   4.819290   4.400459   3.220261   2.144054
    15  H    4.544695   4.833987   3.995838   2.627131   2.138674
    16  O    2.911628   3.753605   5.041832   5.593646   5.124553
    17  H    3.169847   2.802457   4.022097   5.142909   5.391862
    18  O    4.561513   3.194411   2.839853   4.039310   5.212941
    19  H    3.157378   4.508608   5.307922   5.132885   4.072678
    20  H    3.192538   4.268507   5.457426   5.798455   5.118774
    21  H    3.471450   4.246443   5.527924   6.101196   5.645399
    22  O    3.784375   3.660023   4.912987   5.958165   6.072757
    23  H    3.434569   3.656067   4.984302   5.880855   5.789261
    24  H    3.971668   2.627732   2.702100   4.041025   5.049887
    25  H    5.257469   3.902475   3.555596   4.707986   5.901508
    26  O    3.813172   5.115515   6.053576   6.009290   5.011572
    27  H    4.378461   5.641818   6.530851   6.439541   5.424768
                    6          7          8          9         10
     6  C    0.000000
     7  H    2.075158   0.000000
     8  O    3.571080   2.489845   0.000000
     9  H    3.779157   4.049719   2.468796   0.000000
    10  H    3.402100   4.788260   4.347793   2.363812   0.000000
    11  O    1.230051   2.487265   4.548161   5.006964   4.474428
    12  C    2.536067   4.602878   5.560987   4.598073   2.773787
    13  H    2.832901   4.828999   6.035194   5.257637   3.533250
    14  H    2.832274   4.849093   6.027561   5.250513   3.530103
    15  H    3.449048   5.457852   6.044664   4.640342   2.442034
    16  O    3.734813   1.883247   3.725243   5.771837   6.671390
    17  H    4.511131   2.755861   1.906916   4.272720   6.043773
    18  O    5.462644   5.126625   2.788281   1.946705   4.204066
    19  H    2.756865   2.754973   5.199292   6.290300   6.128886
    20  H    3.673978   2.250131   4.453673   6.283156   6.877590
    21  H    4.278107   2.479642   4.137993   6.223061   7.166850
    22  O    5.056062   3.172809   2.863384   5.214029   6.893005
    23  H    4.613967   2.629914   3.105228   5.454269   6.887324
    24  H    5.042625   4.394515   1.946234   2.082530   4.445642
    25  H    6.170475   5.781882   3.415201   2.647778   4.793166
    26  O    3.649370   3.190858   5.631732   7.000670   7.029941
    27  H    4.147443   3.821900   6.160257   7.469676   7.426826
                   11         12         13         14         15
    11  O    0.000000
    12  C    2.869058   0.000000
    13  H    2.875832   1.091928   0.000000
    14  H    2.869591   1.091920   1.758174   0.000000
    15  H    3.935425   1.089732   1.770457   1.770470   0.000000
    16  O    3.632740   6.239291   6.323072   6.346141   7.183391
    17  H    5.148242   6.830654   7.280008   7.076161   7.474284
    18  O    6.652130   6.540975   7.184420   7.154833   6.563911
    19  H    1.767293   4.563918   4.507653   4.341013   5.641742
    20  H    3.263059   6.051263   6.082456   6.023871   7.061929
    21  H    4.142747   6.738320   6.695812   6.937762   7.680087
    22  O    5.511235   7.456895   7.878013   7.604083   8.170567
    23  H    4.890231   7.102137   7.426463   7.213538   7.908173
    24  H    6.173415   6.473909   7.059021   7.051611   6.657029
    25  H    7.355872   7.201578   7.770699   7.895496   7.178337
    26  O    2.736227   5.542822   5.471549   5.287281   6.619516
    27  H    3.226260   5.856214   5.877628   5.429124   6.915308
                   16         17         18         19         20
    16  O    0.000000
    17  H    2.985035   0.000000
    18  O    6.513426   4.230827   0.000000
    19  H    2.870679   5.157671   7.687000   0.000000
    20  H    0.985071   3.803500   7.215993   2.100623   0.000000
    21  H    0.963031   3.464703   6.888089   3.391047   1.562162
    22  O    2.834432   0.970517   5.152831   5.206546   3.609803
    23  H    1.905555   1.518008   5.687773   4.393482   2.668101
    24  H    5.646252   3.310050   0.972722   7.049601   6.397125
    25  H    7.094114   4.816615   0.962125   8.401879   7.850640
    26  O    2.681304   5.268059   8.251960   0.980185   1.730148
    27  H    3.329729   5.680431   8.720144   1.560573   2.381634
                   21         22         23         24         25
    21  H    0.000000
    22  O    3.316997   0.000000
    23  H    2.437072   0.970372   0.000000
    24  H    5.997206   4.238342   4.768803   0.000000
    25  H    7.364991   5.726180   6.277521   1.551464   0.000000
    26  O    3.139544   5.139704   4.251024   7.542635   8.955265
    27  H    3.898167   5.474478   4.633281   8.035094   9.479783
                   26         27
    26  O    0.000000
    27  H    0.962039   0.000000
 Stoichiometry    C5H14N2O6
 Framework group  C1[X(C5H14N2O6)]
 Deg. of freedom    75
 Full point group                 C1      NOp   1
 Largest Abelian subgroup         C1      NOp   1
 Largest concise Abelian subgroup C1      NOp   1
                         Standard orientation:                         
 ---------------------------------------------------------------------
 Center     Atomic      Atomic             Coordinates (Angstroms)
 Number     Number       Type             X           Y           Z
 ---------------------------------------------------------------------
      1          7           0       -0.231165   -0.035141   -0.187654
      2          6           0        1.096368   -0.361997   -0.138091
      3          7           0        1.943485    0.693041    0.000329
      4          6           0        1.507124    1.988439    0.094046
      5          6           0        0.203040    2.318540    0.062719
      6          6           0       -0.757961    1.241995   -0.079486
      7          1           0       -0.888783   -0.813428   -0.333259
      8          8           0        1.493654   -1.526624   -0.212117
      9          1           0        2.937877    0.460731    0.032007
     10          1           0        2.289814    2.727806    0.199297
     11          8           0       -1.975809    1.412395   -0.108376
     12          6           0       -0.298919    3.723573    0.170889
     13          1           0       -0.877522    4.000626   -0.712721
     14          1           0       -0.955054    3.837803    1.036180
     15          1           0        0.531928    4.421320    0.272664
     16          8           0       -2.156963   -2.189392   -0.545540
     17          1           0        0.535019   -3.051632    0.413739
     18          8           0        4.219759   -1.004201    0.052340
     19          1           0       -3.350109    0.329651    0.141206
     20          1           0       -2.956623   -1.696600   -0.248786
     21          1           0       -2.337461   -2.493339   -1.441344
     22          8           0       -0.116053   -3.712336    0.699184
     23          1           0       -0.953794   -3.345363    0.374927
     24          1           0        3.437732   -1.554816   -0.124989
     25          1           0        4.871171   -1.226959   -0.619765
     26          8           0       -4.008523   -0.394844    0.189792
     27          1           0       -4.416871   -0.344382    1.059404
 ---------------------------------------------------------------------
 Rotational constants (GHZ):           0.6284335           0.5383142           0.2971763
 Leave Link  202 at Thu Jan  5 15:11:37 2023, MaxMem=  1342177280 cpu:               0.4 elap:               0.0
 (Enter /shared/gaussian/g16.b01/AVX2/g16/l301.exe)
 Standard basis: 6-311+G(d,p) (5D, 7F)
 Ernie: Thresh=  0.10000D-02 Tol=  0.10000D-05 Strict=F.
 There are   383 symmetry adapted cartesian basis functions of A   symmetry.
 There are   370 symmetry adapted basis functions of A   symmetry.
   370 basis functions,   580 primitive gaussians,   383 cartesian basis functions
    53 alpha electrons       53 beta electrons
       nuclear repulsion energy       873.8248456000 Hartrees.
 IExCor=20419 DFT=T Ex+Corr=CAM-B3LYP ExCW=0 ScaHFX=  1.000000
 ScaDFX=  1.000000  1.000000  1.000000  0.810000 ScalE2=  1.000000  1.000000
 IRadAn=      5 IRanWt=     -1 IRanGd=            0 ICorTp=0 IEmpDi=  4
 HFx  wShort=  0.000000 wLong=  0.330000 cFull=  0.190000 cShort=  0.000000 cLong=  0.460000
 DFx  wShort=  0.000000 wLong=  0.330000 cFull=  0.190000 cShort=  0.000000 cLong=  0.460000
 NAtoms=   27 NActive=   27 NUniq=   27 SFac= 1.00D+00 NAtFMM=   60 NAOKFM=F Big=F
 Integral buffers will be    131072 words long.
 Raffenetti 1 integral format.
 Two-electron integral symmetry is turned on.
 Force inversion solution in PCM.
 ------------------------------------------------------------------------------
 Polarizable Continuum Model (PCM)
 =================================
 Model                : PCM.
 Atomic radii         : UFF (Universal Force Field).
 Polarization charges : Total charges.
 Charge compensation  : None.
 Solution method      : Matrix inversion.
 Cavity type          : Scaled VdW (van der Waals Surface) (Alpha=1.100).
 Cavity algorithm     : GePol (No added spheres)
                        Default sphere list used, NSphG=   27.
                        Lebedev-Laikov grids with approx.  5.0 points / Ang**2.
                        Smoothing algorithm: York/Karplus (Gamma=1.0000).
                        Polarization charges: spherical gaussians, with
                                              point-specific exponents (IZeta= 3).
                        Self-potential: point-specific (ISelfS= 7).
                        Self-field    : sphere-specific E.n sum rule (ISelfD= 2).
 1st derivatives      : Analytical E(r).r(x)/FMM algorithm (CHGder, D1EAlg=3).
                        Cavity 1st derivative terms included.
 2nd derivatives      : Analytical E(r).r(xy)/FMM algorithm (CHGder, D2EAlg=3).
                        Cavity 2nd derivative terms included.
 Solvent              : Water, Eps=  78.355300 Eps(inf)=   1.777849
 ------------------------------------------------------------------------------
 GePol: Number of generator spheres                  =      27
 GePol: Total number of spheres                      =      27
 GePol: Number of exposed spheres                    =      27 (100.00%)
 GePol: Number of points                             =    2281
 GePol: Average weight of points                     =       0.12
 GePol: Minimum weight of points                     =   0.27D-09
 GePol: Maximum weight of points                     =    0.20577
 GePol: Number of points with low weight             =     148
 GePol: Fraction of low-weight points (<1% of avg)   =       6.49%
 GePol: Cavity surface area                          =    280.953 Ang**2
 GePol: Cavity volume                                =    278.556 Ang**3
 Leave Link  301 at Thu Jan  5 15:11:37 2023, MaxMem=  1342177280 cpu:               3.3 elap:               0.1
 (Enter /shared/gaussian/g16.b01/AVX2/g16/l302.exe)
 NPDir=0 NMtPBC=     1 NCelOv=     1 NCel=       1 NClECP=     1 NCelD=      1
         NCelK=      1 NCelE2=     1 NClLst=     1 CellRange=     0.0.
 One-electron integrals computed using PRISM.
 One-electron integral symmetry used in STVInt
 NBasis=   370 RedAO= T EigKep=  5.61D-06  NBF=   370
 NBsUse=   370 1.00D-06 EigRej= -1.00D+00 NBFU=   370
 Precomputing XC quadrature grid using
 IXCGrd= 4 IRadAn=           5 IRanWt=          -1 IRanGd=           0 AccXCQ= 0.00D+00.
 Generated NRdTot=       0 NPtTot=           0 NUsed=           0 NTot=          32
 NSgBfM=   381   381   381   381   381 MxSgAt=    27 MxSgA2=    27.
 Leave Link  302 at Thu Jan  5 15:11:38 2023, MaxMem=  1342177280 cpu:              16.3 elap:               0.4
 (Enter /shared/gaussian/g16.b01/AVX2/g16/l303.exe)
 DipDrv:  MaxL=1.
 Leave Link  303 at Thu Jan  5 15:11:38 2023, MaxMem=  1342177280 cpu:               2.5 elap:               0.1
 (Enter /shared/gaussian/g16.b01/AVX2/g16/l308.exe)
 Leave Link  308 at Thu Jan  5 15:11:38 2023, MaxMem=  1342177280 cpu:               3.0 elap:               0.1
 (Enter /shared/gaussian/g16.b01/AVX2/g16/l401.exe)
 ExpMin= 4.38D-02 ExpMax= 8.59D+03 ExpMxC= 1.30D+03 IAcc=3 IRadAn=         5 AccDes= 0.00D+00
 Harris functional with IExCor=20419 and IRadAn=       5 diagonalized for initial guess.
 HarFok:  IExCor=20419 AccDes= 0.00D+00 IRadAn=         5 IDoV= 1 UseB2=F ITyADJ=14
 ICtDFT=  3500011 ScaDFX=  1.000000  1.000000  1.000000  1.000000
 FoFCou: FMM=F IPFlag=           0 FMFlag=      100000 FMFlg1=           0
         NFxFlg=           0 DoJE=T BraDBF=F KetDBF=T FulRan=T
         wScrn=  0.000000 ICntrl=       500 IOpCl=  0 I1Cent=   200000004 NGrid=           0
         NMat0=    1 NMatS0=      1 NMatT0=    0 NMatD0=    1 NMtDS0=    0 NMtDT0=    0
 Petite list used in FoFCou.
 Harris En= -733.390347824989    
 JPrj=0 DoOrth=F DoCkMO=F.
 Leave Link  401 at Thu Jan  5 15:11:38 2023, MaxMem=  1342177280 cpu:              25.9 elap:               0.6
 (Enter /shared/gaussian/g16.b01/AVX2/g16/l502.exe)
 Integral symmetry usage will be decided dynamically.
 Closed shell SCF:
 Using DIIS extrapolation, IDIIS=  1040.
 NGot=  1342177280 LenX=  1341860947 LenY=  1341713817
 Requested convergence on RMS density matrix=1.00D-08 within 128 cycles.
 Requested convergence on MAX density matrix=1.00D-06.
 Requested convergence on             energy=1.00D-06.
 No special actions if energy rises.
 Fock matrices will be formed incrementally for  20 cycles.

 Cycle   1  Pass 1  IDiag  1:
 FoFJK:  IHMeth= 1 ICntrl=       0 DoSepK=T KAlg= 0 I1Cent=           0 FoldK=F
 IRaf=         1 NMat=       1 IRICut=       1 DoRegI=T DoRafI=F ISym2E= 0 IDoP0=0 IntGTp=1.
 FoFCou: FMM=F IPFlag=           0 FMFlag=      100000 FMFlg1=           0
         NFxFlg=           0 DoJE=T BraDBF=F KetDBF=F FulRan=T
         wScrn=  0.000000 ICntrl=       500 IOpCl=  0 I1Cent=           0 NGrid=           0
         NMat0=    1 NMatS0=      1 NMatT0=    0 NMatD0=    1 NMtDS0=    0 NMtDT0=    0
 Symmetry not used in FoFCou.
 Inv3:  Mode=1 IEnd=    15608883.
 Iteration    1 A*A^-1 deviation from unit magnitude is 3.11D-15 for   1630.
 Iteration    1 A*A^-1 deviation from orthogonality  is 2.00D-15 for   1069    347.
 Iteration    1 A^-1*A deviation from unit magnitude is 3.33D-15 for   1630.
 Iteration    1 A^-1*A deviation from orthogonality  is 8.88D-14 for   1458   1357.
 E= -759.733593705001    
 DIIS: error= 5.40D-02 at cycle   1 NSaved=   1.
 NSaved= 1 IEnMin= 1 EnMin= -759.733593705001     IErMin= 1 ErrMin= 5.40D-02
 ErrMax= 5.40D-02  0.00D+00 EMaxC= 1.00D-01 BMatC= 1.14D+00 BMatP= 1.14D+00
 IDIUse=3 WtCom= 4.60D-01 WtEn= 5.40D-01
 Coeff-Com:  0.100D+01
 Coeff-En:   0.100D+01
 Coeff:      0.100D+01
 Gap=     0.309 Goal=   None    Shift=    0.000
 GapD=    0.309 DampG=1.000 DampE=0.500 DampFc=0.5000 IDamp=-1.
 Damping current iteration by 5.00D-01
 RMSDP=8.48D-03 MaxDP=1.43D+00              OVMax= 1.29D-01

 Cycle   2  Pass 1  IDiag  1:
 RMSU=  2.89D-03    CP:  8.66D-01
 E= -759.810862702392     Delta-E=       -0.077268997391 Rises=F Damp=T
 DIIS: error= 2.57D-02 at cycle   2 NSaved=   2.
 NSaved= 2 IEnMin= 2 EnMin= -759.810862702392     IErMin= 2 ErrMin= 2.57D-02
 ErrMax= 2.57D-02  0.00D+00 EMaxC= 1.00D-01 BMatC= 2.38D-01 BMatP= 1.14D+00
 IDIUse=3 WtCom= 7.43D-01 WtEn= 2.57D-01
 Coeff-Com: -0.682D+00 0.168D+01
 Coeff-En:   0.000D+00 0.100D+01
 Coeff:     -0.507D+00 0.151D+01
 Gap=     0.336 Goal=   None    Shift=    0.000
 RMSDP=4.19D-03 MaxDP=5.56D-01 DE=-7.73D-02 OVMax= 1.08D-01

 Cycle   3  Pass 1  IDiag  1:
 RMSU=  1.84D-03    CP:  7.26D-01  1.66D+00
 E= -759.859758548457     Delta-E=       -0.048895846064 Rises=F Damp=F
 DIIS: error= 1.06D-02 at cycle   3 NSaved=   3.
 NSaved= 3 IEnMin= 3 EnMin= -759.859758548457     IErMin= 3 ErrMin= 1.06D-02
 ErrMax= 1.06D-02  0.00D+00 EMaxC= 1.00D-01 BMatC= 3.67D-02 BMatP= 2.38D-01
 IDIUse=3 WtCom= 8.94D-01 WtEn= 1.06D-01
 Coeff-Com: -0.356D+00 0.767D+00 0.588D+00
 Coeff-En:   0.000D+00 0.000D+00 0.100D+01
 Coeff:     -0.318D+00 0.686D+00 0.632D+00
 Gap=     0.303 Goal=   None    Shift=    0.000
 RMSDP=1.02D-03 MaxDP=9.73D-02 DE=-4.89D-02 OVMax= 5.64D-02

 Cycle   4  Pass 1  IDiag  1:
 RMSU=  4.46D-04    CP:  7.21D-01  1.89D+00  6.61D-01
 E= -759.888183527550     Delta-E=       -0.028424979093 Rises=F Damp=F
 DIIS: error= 3.46D-03 at cycle   4 NSaved=   4.
 NSaved= 4 IEnMin= 4 EnMin= -759.888183527550     IErMin= 4 ErrMin= 3.46D-03
 ErrMax= 3.46D-03  0.00D+00 EMaxC= 1.00D-01 BMatC= 3.69D-03 BMatP= 3.67D-02
 IDIUse=3 WtCom= 9.65D-01 WtEn= 3.46D-02
 Coeff-Com: -0.170D+00 0.361D+00 0.364D+00 0.445D+00
 Coeff-En:   0.000D+00 0.000D+00 0.000D+00 0.100D+01
 Coeff:     -0.164D+00 0.348D+00 0.351D+00 0.464D+00
 Gap=     0.300 Goal=   None    Shift=    0.000
 RMSDP=3.37D-04 MaxDP=4.01D-02 DE=-2.84D-02 OVMax= 1.26D-02

 Cycle   5  Pass 1  IDiag  1:
 RMSU=  1.52D-04    CP:  7.13D-01  1.87D+00  7.56D-01  6.78D-01
 E= -759.890781028145     Delta-E=       -0.002597500595 Rises=F Damp=F
 DIIS: error= 5.77D-04 at cycle   5 NSaved=   5.
 NSaved= 5 IEnMin= 5 EnMin= -759.890781028145     IErMin= 5 ErrMin= 5.77D-04
 ErrMax= 5.77D-04  0.00D+00 EMaxC= 1.00D-01 BMatC= 7.77D-05 BMatP= 3.69D-03
 IDIUse=3 WtCom= 9.94D-01 WtEn= 5.77D-03
 Coeff-Com: -0.344D-01 0.723D-01 0.889D-01 0.185D+00 0.688D+00
 Coeff-En:   0.000D+00 0.000D+00 0.000D+00 0.000D+00 0.100D+01
 Coeff:     -0.343D-01 0.719D-01 0.884D-01 0.184D+00 0.690D+00
 Gap=     0.300 Goal=   None    Shift=    0.000
 RMSDP=8.41D-05 MaxDP=7.31D-03 DE=-2.60D-03 OVMax= 3.82D-03

 Cycle   6  Pass 1  IDiag  1:
 RMSU=  4.24D-05    CP:  7.12D-01  1.89D+00  7.66D-01  7.79D-01  9.47D-01
 E= -759.890843246608     Delta-E=       -0.000062218463 Rises=F Damp=F
 DIIS: error= 2.59D-04 at cycle   6 NSaved=   6.
 NSaved= 6 IEnMin= 6 EnMin= -759.890843246608     IErMin= 6 ErrMin= 2.59D-04
 ErrMax= 2.59D-04  0.00D+00 EMaxC= 1.00D-01 BMatC= 1.39D-05 BMatP= 7.77D-05
 IDIUse=3 WtCom= 9.97D-01 WtEn= 2.59D-03
 Coeff-Com:  0.130D-01-0.279D-01-0.204D-01 0.961D-03 0.331D+00 0.703D+00
 Coeff-En:   0.000D+00 0.000D+00 0.000D+00 0.000D+00 0.000D+00 0.100D+01
 Coeff:      0.129D-01-0.278D-01-0.204D-01 0.959D-03 0.331D+00 0.704D+00
 Gap=     0.300 Goal=   None    Shift=    0.000
 RMSDP=4.13D-05 MaxDP=4.75D-03 DE=-6.22D-05 OVMax= 2.03D-03

 Cycle   7  Pass 1  IDiag  1:
 RMSU=  1.54D-05    CP:  7.10D-01  1.89D+00  7.74D-01  7.90D-01  1.05D+00
                    CP:  9.48D-01
 E= -759.890858596099     Delta-E=       -0.000015349492 Rises=F Damp=F
 DIIS: error= 6.25D-05 at cycle   7 NSaved=   7.
 NSaved= 7 IEnMin= 7 EnMin= -759.890858596099     IErMin= 7 ErrMin= 6.25D-05
 ErrMax= 6.25D-05  0.00D+00 EMaxC= 1.00D-01 BMatC= 1.42D-06 BMatP= 1.39D-05
 IDIUse=1 WtCom= 1.00D+00 WtEn= 0.00D+00
 Coeff-Com:  0.898D-02-0.190D-01-0.182D-01-0.258D-01 0.505D-01 0.270D+00
 Coeff-Com:  0.733D+00
 Coeff:      0.898D-02-0.190D-01-0.182D-01-0.258D-01 0.505D-01 0.270D+00
 Coeff:      0.733D+00
 Gap=     0.300 Goal=   None    Shift=    0.000
 RMSDP=1.17D-05 MaxDP=1.30D-03 DE=-1.53D-05 OVMax= 5.88D-04

 Cycle   8  Pass 1  IDiag  1:
 RMSU=  5.29D-06    CP:  7.10D-01  1.89D+00  7.76D-01  7.94D-01  1.09D+00
                    CP:  1.02D+00  1.09D+00
 E= -759.890860482120     Delta-E=       -0.000001886021 Rises=F Damp=F
 DIIS: error= 3.66D-05 at cycle   8 NSaved=   8.
 NSaved= 8 IEnMin= 8 EnMin= -759.890860482120     IErMin= 8 ErrMin= 3.66D-05
 ErrMax= 3.66D-05  0.00D+00 EMaxC= 1.00D-01 BMatC= 2.47D-07 BMatP= 1.42D-06
 IDIUse=1 WtCom= 1.00D+00 WtEn= 0.00D+00
 Coeff-Com:  0.126D-02-0.261D-02-0.374D-02-0.130D-01-0.341D-01-0.977D-03
 Coeff-Com:  0.308D+00 0.745D+00
 Coeff:      0.126D-02-0.261D-02-0.374D-02-0.130D-01-0.341D-01-0.977D-03
 Coeff:      0.308D+00 0.745D+00
 Gap=     0.300 Goal=   None    Shift=    0.000
 RMSDP=5.52D-06 MaxDP=5.00D-04 DE=-1.89D-06 OVMax= 4.24D-04

 Cycle   9  Pass 1  IDiag  1:
 RMSU=  3.03D-06    CP:  7.10D-01  1.89D+00  7.76D-01  7.94D-01  1.11D+00
                    CP:  1.04D+00  1.25D+00  1.08D+00
 E= -759.890860832663     Delta-E=       -0.000000350543 Rises=F Damp=F
 DIIS: error= 1.50D-05 at cycle   9 NSaved=   9.
 NSaved= 9 IEnMin= 9 EnMin= -759.890860832663     IErMin= 9 ErrMin= 1.50D-05
 ErrMax= 1.50D-05  0.00D+00 EMaxC= 1.00D-01 BMatC= 3.56D-08 BMatP= 2.47D-07
 IDIUse=1 WtCom= 1.00D+00 WtEn= 0.00D+00
 Coeff-Com: -0.995D-03 0.213D-02 0.152D-02-0.162D-02-0.189D-01-0.389D-01
 Coeff-Com:  0.798D-02 0.305D+00 0.744D+00
 Coeff:     -0.995D-03 0.213D-02 0.152D-02-0.162D-02-0.189D-01-0.389D-01
 Coeff:      0.798D-02 0.305D+00 0.744D+00
 Gap=     0.300 Goal=   None    Shift=    0.000
 RMSDP=1.80D-06 MaxDP=1.76D-04 DE=-3.51D-07 OVMax= 1.80D-04

 Cycle  10  Pass 1  IDiag  1:
 RMSU=  8.45D-07    CP:  7.10D-01  1.89D+00  7.76D-01  7.93D-01  1.11D+00
                    CP:  1.05D+00  1.28D+00  1.21D+00  1.10D+00
 E= -759.890860881257     Delta-E=       -0.000000048595 Rises=F Damp=F
 DIIS: error= 4.68D-06 at cycle  10 NSaved=  10.
 NSaved=10 IEnMin=10 EnMin= -759.890860881257     IErMin=10 ErrMin= 4.68D-06
 ErrMax= 4.68D-06  0.00D+00 EMaxC= 1.00D-01 BMatC= 7.56D-09 BMatP= 3.56D-08
 IDIUse=1 WtCom= 1.00D+00 WtEn= 0.00D+00
 Coeff-Com: -0.592D-03 0.125D-02 0.117D-02 0.104D-02-0.268D-02-0.179D-01
 Coeff-Com: -0.548D-01 0.128D-01 0.366D+00 0.694D+00
 Coeff:     -0.592D-03 0.125D-02 0.117D-02 0.104D-02-0.268D-02-0.179D-01
 Coeff:     -0.548D-01 0.128D-01 0.366D+00 0.694D+00
 Gap=     0.300 Goal=   None    Shift=    0.000
 RMSDP=8.07D-07 MaxDP=5.90D-05 DE=-4.86D-08 OVMax= 5.27D-05

 Cycle  11  Pass 1  IDiag  1:
 RMSU=  3.63D-07    CP:  7.10D-01  1.89D+00  7.76D-01  7.92D-01  1.11D+00
                    CP:  1.05D+00  1.30D+00  1.24D+00  1.23D+00  9.79D-01
 E= -759.890860890391     Delta-E=       -0.000000009133 Rises=F Damp=F
 DIIS: error= 2.03D-06 at cycle  11 NSaved=  11.
 NSaved=11 IEnMin=11 EnMin= -759.890860890391     IErMin=11 ErrMin= 2.03D-06
 ErrMax= 2.03D-06  0.00D+00 EMaxC= 1.00D-01 BMatC= 3.73D-10 BMatP= 7.56D-09
 IDIUse=1 WtCom= 1.00D+00 WtEn= 0.00D+00
 Coeff-Com: -0.963D-04 0.203D-03 0.236D-03 0.446D-03 0.936D-03-0.252D-02
 Coeff-Com: -0.218D-01-0.184D-01 0.741D-01 0.214D+00 0.753D+00
 Coeff:     -0.963D-04 0.203D-03 0.236D-03 0.446D-03 0.936D-03-0.252D-02
 Coeff:     -0.218D-01-0.184D-01 0.741D-01 0.214D+00 0.753D+00
 Gap=     0.300 Goal=   None    Shift=    0.000
 RMSDP=2.13D-07 MaxDP=1.92D-05 DE=-9.13D-09 OVMax= 2.07D-05

 Cycle  12  Pass 1  IDiag  1:
 RMSU=  1.00D-07    CP:  7.10D-01  1.89D+00  7.76D-01  7.92D-01  1.11D+00
                    CP:  1.05D+00  1.31D+00  1.24D+00  1.25D+00  1.04D+00
                    CP:  1.10D+00
 E= -759.890860890952     Delta-E=       -0.000000000561 Rises=F Damp=F
 DIIS: error= 4.80D-07 at cycle  12 NSaved=  12.
 NSaved=12 IEnMin=12 EnMin= -759.890860890952     IErMin=12 ErrMin= 4.80D-07
 ErrMax= 4.80D-07  0.00D+00 EMaxC= 1.00D-01 BMatC= 1.06D-10 BMatP= 3.73D-10
 IDIUse=1 WtCom= 1.00D+00 WtEn= 0.00D+00
 Coeff-Com:  0.412D-04-0.884D-04-0.541D-04 0.753D-04 0.893D-03 0.183D-02
 Coeff-Com: -0.162D-02-0.943D-02-0.281D-01-0.396D-01 0.338D+00 0.738D+00
 Coeff:      0.412D-04-0.884D-04-0.541D-04 0.753D-04 0.893D-03 0.183D-02
 Coeff:     -0.162D-02-0.943D-02-0.281D-01-0.396D-01 0.338D+00 0.738D+00
 Gap=     0.300 Goal=   None    Shift=    0.000
 RMSDP=9.52D-08 MaxDP=7.04D-06 DE=-5.61D-10 OVMax= 6.47D-06

 Cycle  13  Pass 1  IDiag  1:
 RMSU=  3.91D-08    CP:  7.10D-01  1.89D+00  7.76D-01  7.92D-01  1.11D+00
                    CP:  1.05D+00  1.31D+00  1.25D+00  1.27D+00  1.06D+00
                    CP:  1.22D+00  1.12D+00
 E= -759.890860891099     Delta-E=       -0.000000000147 Rises=F Damp=F
 DIIS: error= 1.76D-07 at cycle  13 NSaved=  13.
 NSaved=13 IEnMin=13 EnMin= -759.890860891099     IErMin=13 ErrMin= 1.76D-07
 ErrMax= 1.76D-07  0.00D+00 EMaxC= 1.00D-01 BMatC= 4.85D-12 BMatP= 1.06D-10
 IDIUse=1 WtCom= 1.00D+00 WtEn= 0.00D+00
 Coeff-Com:  0.190D-04-0.403D-04-0.349D-04-0.250D-04 0.117D-03 0.719D-03
 Coeff-Com:  0.156D-02-0.292D-04-0.140D-01-0.322D-01 0.202D-01 0.154D+00
 Coeff-Com:  0.869D+00
 Coeff:      0.190D-04-0.403D-04-0.349D-04-0.250D-04 0.117D-03 0.719D-03
 Coeff:      0.156D-02-0.292D-04-0.140D-01-0.322D-01 0.202D-01 0.154D+00
 Coeff:      0.869D+00
 Gap=     0.300 Goal=   None    Shift=    0.000
 RMSDP=2.65D-08 MaxDP=2.01D-06 DE=-1.47D-10 OVMax= 2.34D-06

 Cycle  14  Pass 1  IDiag  1:
 RMSU=  1.44D-08    CP:  7.10D-01  1.89D+00  7.76D-01  7.92D-01  1.11D+00
                    CP:  1.05D+00  1.31D+00  1.25D+00  1.27D+00  1.07D+00
                    CP:  1.26D+00  1.17D+00  1.19D+00
 E= -759.890860891109     Delta-E=       -0.000000000010 Rises=F Damp=F
 DIIS: error= 8.23D-08 at cycle  14 NSaved=  14.
 NSaved=14 IEnMin=14 EnMin= -759.890860891109     IErMin=14 ErrMin= 8.23D-08
 ErrMax= 8.23D-08  0.00D+00 EMaxC= 1.00D-01 BMatC= 1.37D-12 BMatP= 4.85D-12
 IDIUse=1 WtCom= 1.00D+00 WtEn= 0.00D+00
 Coeff-Com:  0.244D-05-0.500D-05-0.753D-05-0.214D-04-0.781D-04 0.613D-04
 Coeff-Com:  0.825D-03 0.142D-02-0.168D-02-0.732D-02-0.371D-01-0.506D-01
 Coeff-Com:  0.375D+00 0.720D+00
 Coeff:      0.244D-05-0.500D-05-0.753D-05-0.214D-04-0.781D-04 0.613D-04
 Coeff:      0.825D-03 0.142D-02-0.168D-02-0.732D-02-0.371D-01-0.506D-01
 Coeff:      0.375D+00 0.720D+00
 Gap=     0.300 Goal=   None    Shift=    0.000
 RMSDP=9.04D-09 MaxDP=6.09D-07 DE=-1.02D-11 OVMax= 8.46D-07

 Error on total polarization charges =  0.01625
 SCF Done:  E(RCAM-B3LYP) =  -759.890860891     A.U. after   14 cycles
            NFock= 14  Conv=0.90D-08     -V/T= 2.0031
 KE= 7.575792157718D+02 PE=-3.532496864760D+03 EE= 1.141201942497D+03
 Leave Link  502 at Thu Jan  5 15:12:00 2023, MaxMem=  1342177280 cpu:            1027.9 elap:              21.4
 (Enter /shared/gaussian/g16.b01/AVX2/g16/l801.exe)
 DoSCS=F DFT=T ScalE2(SS,OS)=  1.000000  1.000000
 ExpMin= 4.38D-02 ExpMax= 8.59D+03 ExpMxC= 1.30D+03 IAcc=3 IRadAn=         5 AccDes= 0.00D+00
 HarFok:  IExCor=  205 AccDes= 0.00D+00 IRadAn=         5 IDoV=-2 UseB2=F ITyADJ=14
 ICtDFT= 12500011 ScaDFX=  1.000000  1.000000  1.000000  1.000000
 Largest valence mixing into a core orbital is  4.85D-05
 Largest core mixing into a valence orbital is  1.01D-05
 Range of M.O.s used for correlation:    14   370
 NBasis=   370 NAE=    53 NBE=    53 NFC=    13 NFV=     0
 NROrb=    357 NOA=    40 NOB=    40 NVA=   317 NVB=   317

 **** Warning!!: The largest alpha MO coefficient is  0.12208706D+03

 Leave Link  801 at Thu Jan  5 15:12:00 2023, MaxMem=  1342177280 cpu:               2.7 elap:               0.1
 (Enter /shared/gaussian/g16.b01/AVX2/g16/l914.exe)
 RHF ground state
 Two-electron integrals replicated using symmetry.
 MDV=  1342177280 DFT=T DoStab=F Mixed=T DoRPA=T DoScal=F NonHer=T
 NEqPCM:  Using equilibrium solvation (IEInf=0, Eps=  78.3553, EpsInf=   1.7778)
 Making orbital integer symmetry assigments:
 Orbital symmetries:
       Occupied  (A) (A) (A) (A) (A) (A) (A) (A) (A) (A) (A) (A)
                 (A) (A) (A) (A) (A) (A) (A) (A) (A) (A) (A) (A)
                 (A) (A) (A) (A) (A) (A) (A) (A) (A) (A) (A) (A)
                 (A) (A) (A) (A) (A) (A) (A) (A) (A) (A) (A) (A)
                 (A) (A) (A) (A) (A)
       Virtual   (A) (A) (A) (A) (A) (A) (A) (A) (A) (A) (A) (A)
                 (A) (A) (A) (A) (A) (A) (A) (A) (A) (A) (A) (A)
                 (A) (A) (A) (A) (A) (A) (A) (A) (A) (A) (A) (A)
                 (A) (A) (A) (A) (A) (A) (A) (A) (A) (A) (A) (A)
                 (A) (A) (A) (A) (A) (A) (A) (A) (A) (A) (A) (A)
                 (A) (A) (A) (A) (A) (A) (A) (A) (A) (A) (A) (A)
                 (A) (A) (A) (A) (A) (A) (A) (A) (A) (A) (A) (A)
                 (A) (A) (A) (A) (A) (A) (A) (A) (A) (A) (A) (A)
                 (A) (A) (A) (A) (A) (A) (A) (A) (A) (A) (A) (A)
                 (A) (A) (A) (A) (A) (A) (A) (A) (A) (A) (A) (A)
                 (A) (A) (A) (A) (A) (A) (A) (A) (A) (A) (A) (A)
                 (A) (A) (A) (A) (A) (A) (A) (A) (A) (A) (A) (A)
                 (A) (A) (A) (A) (A) (A) (A) (A) (A) (A) (A) (A)
                 (A) (A) (A) (A) (A) (A) (A) (A) (A) (A) (A) (A)
                 (A) (A) (A) (A) (A) (A) (A) (A) (A) (A) (A) (A)
                 (A) (A) (A) (A) (A) (A) (A) (A) (A) (A) (A) (A)
                 (A) (A) (A) (A) (A) (A) (A) (A) (A) (A) (A) (A)
                 (A) (A) (A) (A) (A) (A) (A) (A) (A) (A) (A) (A)
                 (A) (A) (A) (A) (A) (A) (A) (A) (A) (A) (A) (A)
                 (A) (A) (A) (A) (A) (A) (A) (A) (A) (A) (A) (A)
                 (A) (A) (A) (A) (A) (A) (A) (A) (A) (A) (A) (A)
                 (A) (A) (A) (A) (A) (A) (A) (A) (A) (A) (A) (A)
                 (A) (A) (A) (A) (A) (A) (A) (A) (A) (A) (A) (A)
                 (A) (A) (A) (A) (A) (A) (A) (A) (A) (A) (A) (A)
                 (A) (A) (A) (A) (A) (A) (A) (A) (A) (A) (A) (A)
                 (A) (A) (A) (A) (A) (A) (A) (A) (A) (A) (A) (A)
                 (A) (A) (A) (A) (A)
    40 initial guesses have been made.
 Convergence on wavefunction:    0.000001000000000
 Davidson Disk Diagonalization:  ConvIn= 1.00D-06 SkipCon=T Conv= 1.00D-06.
 Max sub-space:  2000 roots to seek:    40 dimension of matrix:        25360
 Iteration     1 Dimension    40 NMult     0 NNew     40
 CISAX will form    40 AO SS matrices at one time.
 NMat=    40 NSing=    40 JSym2X= 0.
 FoFJK:  IHMeth= 1 ICntrl=       0 DoSepK=T KAlg= 0 I1Cent=           0 FoldK=F
 IRaf=         1 NMat=      80 IRICut=       1 DoRegI=T DoRafI=F ISym2E= 0 IDoP0=3 IntGTp=3.
 FoFCou: FMM=F IPFlag=           0 FMFlag=      100000 FMFlg1=           0
         NFxFlg=           0 DoJE=F BraDBF=F KetDBF=F FulRan=T
         wScrn=  0.000000 ICntrl=       500 IOpCl=  0 I1Cent=           0 NGrid=           0
         NMat0=   40 NMatS0=     40 NMatT0=    0 NMatD0=   40 NMtDS0=    0 NMtDT0=    0
 Symmetry not used in FoFCou.
 New state      2 was old state      6
 New state      3 was old state      2
 New state      4 was old state      3
 New state      5 was old state     17
 New state      6 was old state      4
 New state      7 was old state      5
 New state      9 was old state     11
 New state     10 was old state      9
 Excitation Energies [eV] at current iteration:
 Root      1 :     5.754462552794394
 Root      2 :     5.792361153232795
 Root      3 :     6.599453229228261
 Root      4 :     6.925845213991938
 Root      5 :     7.225178051075379
 Root      6 :     7.275747948024488
 Root      7 :     7.384530875344357
 Root      8 :     7.515559441504038
 Root      9 :     7.568016619216581
 Root     10 :     7.685958456884934
 Root     11 :     7.990380310479179
 Root     12 :     8.054910815459531
 Root     13 :     8.087272309673214
 Root     14 :     8.128439599334760
 Root     15 :     8.160313576648504
 Root     16 :     8.271210308457759
 Root     17 :     8.386844459041912
 Root     18 :     8.463256039176693
 Root     19 :     8.519961987058005
 Root     20 :     8.529066724929207
 Root     21 :     8.582175161789989
 Root     22 :     8.608489605046476
 Root     23 :     8.643204522462343
 Root     24 :     8.737198582482185
 Root     25 :     8.776397606225672
 Root     26 :     8.816423516897643
 Root     27 :     8.963413181588344
 Root     28 :     9.067325040742690
 Root     29 :     9.147620046932094
 Root     30 :     9.193696616469145
 Root     31 :     9.213674520313843
 Root     32 :     9.258837459673517
 Root     33 :     9.267883822418847
 Root     34 :     9.416471633489813
 Root     35 :     9.491762559981835
 Root     36 :     9.515878183367247
 Root     37 :     9.565239217158986
 Root     38 :     9.647288451901932
 Root     39 :     9.928546197063085
 Root     40 :     9.956515781626745
 Iteration     2 Dimension    60 NMult    40 NNew     20
 CISAX will form    20 AO SS matrices at one time.
 NMat=    20 NSing=    20 JSym2X= 0.
 Root      1 not converged, maximum delta is    0.055224633935727
 Root      2 not converged, maximum delta is    0.069523557436345
 New state      3 was old state      4
 Root      3 not converged, maximum delta is    0.120550459829252
 New state      4 was old state      3
 Root      4 not converged, maximum delta is    0.038679002733762
 New state      5 was old state      8
 Root      5 not converged, maximum delta is    0.149075401427134
 New state      6 was old state      5
 Root      6 not converged, maximum delta is    0.134531643881792
 New state      7 was old state      6
 Root      7 not converged, maximum delta is    0.068860028921585
 New state      8 was old state      7
 Root      8 not converged, maximum delta is    0.052734703516570
 Root      9 not converged, maximum delta is    0.129207662203155
 Root     10 not converged, maximum delta is    0.086568478696017
 Excitation Energies [eV] at current iteration:
 Root      1 :     5.080022155761722   Change is   -0.674440397032671
 Root      2 :     5.541822780898482   Change is   -0.250538372334314
 Root      3 :     6.306812201770932   Change is   -0.619033012221006
 Root      4 :     6.482984143542152   Change is   -0.116469085686110
 Root      5 :     6.798369152318969   Change is   -0.717190289185069
 Root      6 :     6.825402070654643   Change is   -0.399775980420736
 Root      7 :     7.139051606603118   Change is   -0.136696341421369
 Root      8 :     7.258699252144802   Change is   -0.125831623199555
 Root      9 :     7.422020765650982   Change is   -0.145995853565599
 Root     10 :     7.538663518816234   Change is   -0.147294938068700
 Iteration     3 Dimension    80 NMult    60 NNew     20
 CISAX will form    20 AO SS matrices at one time.
 NMat=    20 NSing=    20 JSym2X= 0.
 Root      1 not converged, maximum delta is    0.017916410836795
 Root      2 not converged, maximum delta is    0.008670022083324
 Root      3 not converged, maximum delta is    0.010732670682781
 Root      4 not converged, maximum delta is    0.003410328962516
 Root      5 not converged, maximum delta is    0.027086151134983
 Root      6 not converged, maximum delta is    0.034417875237314
 Root      7 not converged, maximum delta is    0.007061751303699
 Root      8 not converged, maximum delta is    0.008016678309377
 Root      9 not converged, maximum delta is    0.030573882677533
 Root     10 not converged, maximum delta is    0.064286062734436
 Excitation Energies [eV] at current iteration:
 Root      1 :     5.037763081568122   Change is   -0.042259074193600
 Root      2 :     5.534290633932935   Change is   -0.007532146965547
 Root      3 :     6.276443415179604   Change is   -0.030368786591328
 Root      4 :     6.481184655180487   Change is   -0.001799488361665
 Root      5 :     6.767296433159432   Change is   -0.031072719159537
 Root      6 :     6.792997014794963   Change is   -0.032405055859679
 Root      7 :     7.134158424989539   Change is   -0.004893181613580
 Root      8 :     7.253932195979989   Change is   -0.004767056164813
 Root      9 :     7.402148975148913   Change is   -0.019871790502069
 Root     10 :     7.526363946083630   Change is   -0.012299572732604
 Iteration     4 Dimension   100 NMult    80 NNew     20
 CISAX will form    20 AO SS matrices at one time.
 NMat=    20 NSing=    20 JSym2X= 0.
 Root      1 not converged, maximum delta is    0.002463764448038
 Root      2 not converged, maximum delta is    0.001932460266914
 Root      3 not converged, maximum delta is    0.004150797058649
 Root      4 not converged, maximum delta is    0.000443936741810
 Root      5 not converged, maximum delta is    0.003163683086332
 Root      6 not converged, maximum delta is    0.007738295634965
 Root      7 not converged, maximum delta is    0.001232186248263
 Root      8 not converged, maximum delta is    0.001802727867402
 Root      9 not converged, maximum delta is    0.013933360252374
 Root     10 not converged, maximum delta is    0.077630786301794
 Excitation Energies [eV] at current iteration:
 Root      1 :     5.034869648877189   Change is   -0.002893432690934
 Root      2 :     5.533451899715033   Change is   -0.000838734217902
 Root      3 :     6.272827533103742   Change is   -0.003615882075862
 Root      4 :     6.481115415503557   Change is   -0.000069239676930
 Root      5 :     6.764301929802935   Change is   -0.002994503356498
 Root      6 :     6.790212872592305   Change is   -0.002784142202658
 Root      7 :     7.133905227509114   Change is   -0.000253197480425
 Root      8 :     7.253593747659412   Change is   -0.000338448320577
 Root      9 :     7.399020704839420   Change is   -0.003128270309493
 Root     10 :     7.518373955055780   Change is   -0.007989991027850
 Iteration     5 Dimension   120 NMult   100 NNew     20
 CISAX will form    20 AO SS matrices at one time.
 NMat=    20 NSing=    20 JSym2X= 0.
 Root      1 not converged, maximum delta is    0.000503891382385
 Root      2 not converged, maximum delta is    0.000232976829562
 Root      3 not converged, maximum delta is    0.000836140961819
 Root      4 not converged, maximum delta is    0.000114935198972
 Root      5 not converged, maximum delta is    0.001187772580758
 Root      6 not converged, maximum delta is    0.001047688046755
 Root      7 not converged, maximum delta is    0.000598886113162
 Root      8 not converged, maximum delta is    0.000568521155878
 Root      9 not converged, maximum delta is    0.001988118887192
 Root     10 not converged, maximum delta is    0.023333845483869
 Excitation Energies [eV] at current iteration:
 Root      1 :     5.034712618518054   Change is   -0.000157030359135
 Root      2 :     5.533422181871674   Change is   -0.000029717843359
 Root      3 :     6.272571670106853   Change is   -0.000255862996889
 Root      4 :     6.481110864405250   Change is   -0.000004551098307
 Root      5 :     6.763971775406953   Change is   -0.000330154395981
 Root      6 :     6.790045538163929   Change is   -0.000167334428377
 Root      7 :     7.133882879240924   Change is   -0.000022348268190
 Root      8 :     7.253559419073607   Change is   -0.000034328585805
 Root      9 :     7.398801334368866   Change is   -0.000219370470554
 Root     10 :     7.516155181624605   Change is   -0.002218773431175
 Iteration     6 Dimension   140 NMult   120 NNew     20
 CISAX will form    20 AO SS matrices at one time.
 NMat=    20 NSing=    20 JSym2X= 0.
 Root      1 not converged, maximum delta is    0.000118299663794
 Root      2 not converged, maximum delta is    0.000047038705157
 Root      3 not converged, maximum delta is    0.000422631397845
 Root      4 not converged, maximum delta is    0.000047358803359
 Root      5 not converged, maximum delta is    0.000700773591768
 Root      6 not converged, maximum delta is    0.000148923068251
 Root      7 not converged, maximum delta is    0.000249783613825
 Root      8 not converged, maximum delta is    0.000404485797052
 Root      9 not converged, maximum delta is    0.000372054338599
 Root     10 not converged, maximum delta is    0.003475686065256
 Excitation Energies [eV] at current iteration:
 Root      1 :     5.034705404040948   Change is   -0.000007214477106
 Root      2 :     5.533421078364973   Change is   -0.000001103506702
 Root      3 :     6.272552232208819   Change is   -0.000019437898033
 Root      4 :     6.481110502643092   Change is   -0.000000361762158
 Root      5 :     6.763935395481761   Change is   -0.000036379925192
 Root      6 :     6.790033479814666   Change is   -0.000012058349263
 Root      7 :     7.133879301175925   Change is   -0.000003578064999
 Root      8 :     7.253552455049219   Change is   -0.000006964024389
 Root      9 :     7.398785080383633   Change is   -0.000016253985233
 Root     10 :     7.515866903032375   Change is   -0.000288278592230
 Iteration     7 Dimension   160 NMult   140 NNew     20
 CISAX will form    20 AO SS matrices at one time.
 NMat=    20 NSing=    20 JSym2X= 0.
 Root      1 not converged, maximum delta is    0.000019039115611
 Root      2 not converged, maximum delta is    0.000011907091574
 Root      3 not converged, maximum delta is    0.000143351951725
 Root      4 not converged, maximum delta is    0.000017468396567
 Root      5 not converged, maximum delta is    0.000213208986254
 Root      6 not converged, maximum delta is    0.000041432988034
 Root      7 not converged, maximum delta is    0.000076134270712
 Root      8 not converged, maximum delta is    0.000104743013519
 Root      9 not converged, maximum delta is    0.000093981524292
 Root     10 not converged, maximum delta is    0.001059560287694
 Excitation Energies [eV] at current iteration:
 Root      1 :     5.034705157361626   Change is   -0.000000246679323
 Root      2 :     5.533421029624424   Change is   -0.000000048740549
 Root      3 :     6.272550654997609   Change is   -0.000001577211211
 Root      4 :     6.481110463632746   Change is   -0.000000039010346
 Root      5 :     6.763931311817934   Change is   -0.000004083663826
 Root      6 :     6.790032740136523   Change is   -0.000000739678143
 Root      7 :     7.133878881950051   Change is   -0.000000419225875
 Root      8 :     7.253551396007537   Change is   -0.000001059041682
 Root      9 :     7.398783768736691   Change is   -0.000001311646943
 Root     10 :     7.515820989338195   Change is   -0.000045913694180
 Iteration     8 Dimension   180 NMult   160 NNew     20
 CISAX will form    20 AO SS matrices at one time.
 NMat=    20 NSing=    20 JSym2X= 0.
 Root      1 not converged, maximum delta is    0.000003454123079
 Root      2 not converged, maximum delta is    0.000001262008402
 Root      3 not converged, maximum delta is    0.000019985975391
 Root      4 not converged, maximum delta is    0.000004839717733
 Root      5 not converged, maximum delta is    0.000043929543799
 Root      6 not converged, maximum delta is    0.000011342818592
 Root      7 not converged, maximum delta is    0.000030514132658
 Root      8 not converged, maximum delta is    0.000019632823244
 Root      9 not converged, maximum delta is    0.000031162661272
 Root     10 not converged, maximum delta is    0.000245588512172
 Excitation Energies [eV] at current iteration:
 Root      1 :     5.034705148713558   Change is   -0.000000008648068
 Root      2 :     5.533421027559766   Change is   -0.000000002064659
 Root      3 :     6.272550546798398   Change is   -0.000000108199211
 Root      4 :     6.481110460674912   Change is   -0.000000002957834
 Root      5 :     6.763930960386548   Change is   -0.000000351431386
 Root      6 :     6.790032690281718   Change is   -0.000000049854805
 Root      7 :     7.133878826179761   Change is   -0.000000055770290
 Root      8 :     7.253551308839378   Change is   -0.000000087168159
 Root      9 :     7.398783642739717   Change is   -0.000000125996974
 Root     10 :     7.515815843478399   Change is   -0.000005145859796
 Iteration     9 Dimension   200 NMult   180 NNew     20
 CISAX will form    20 AO SS matrices at one time.
 NMat=    20 NSing=    20 JSym2X= 0.
 Root      1 has converged.
 Root      2 has converged.
 Root      3 not converged, maximum delta is    0.000005316970586
 Root      4 has converged.
 Root      5 not converged, maximum delta is    0.000010991313837
 Root      6 not converged, maximum delta is    0.000002171742991
 Root      7 not converged, maximum delta is    0.000009036351362
 Root      8 not converged, maximum delta is    0.000005289486778
 Root      9 not converged, maximum delta is    0.000009309115244
 Root     10 not converged, maximum delta is    0.000064435278338
 Excitation Energies [eV] at current iteration:
 Root      1 :     5.034705148396285   Change is   -0.000000000317273
 Root      2 :     5.533421027467625   Change is   -0.000000000092140
 Root      3 :     6.272550539981828   Change is   -0.000000006816570
 Root      4 :     6.481110460503460   Change is   -0.000000000171452
 Root      5 :     6.763930932439318   Change is   -0.000000027947231
 Root      6 :     6.790032686787311   Change is   -0.000000003494407
 Root      7 :     7.133878818871073   Change is   -0.000000007308687
 Root      8 :     7.253551302630322   Change is   -0.000000006209057
 Root      9 :     7.398783629574464   Change is   -0.000000013165253
 Root     10 :     7.515815356512431   Change is   -0.000000486965968
 Iteration    10 Dimension   214 NMult   200 NNew     14
 CISAX will form    14 AO SS matrices at one time.
 NMat=    14 NSing=    14 JSym2X= 0.
 Root      1 has converged.
 Root      2 has converged.
 Root      3 has converged.
 Root      4 has converged.
 Root      5 not converged, maximum delta is    0.000001555532973
 Root      6 has converged.
 Root      7 not converged, maximum delta is    0.000001512510759
 Root      8 not converged, maximum delta is    0.000001416517899
 Root      9 not converged, maximum delta is    0.000002336965453
 Root     10 not converged, maximum delta is    0.000031203186029
 Excitation Energies [eV] at current iteration:
 Root      1 :     5.034705148389950   Change is   -0.000000000006335
 Root      2 :     5.533421027466645   Change is   -0.000000000000980
 Root      3 :     6.272550539643355   Change is   -0.000000000338473
 Root      4 :     6.481110460499350   Change is   -0.000000000004110
 Root      5 :     6.763930930751068   Change is   -0.000000001688249
 Root      6 :     6.790032686546101   Change is   -0.000000000241210
 Root      7 :     7.133878818276690   Change is   -0.000000000594384
 Root      8 :     7.253551302182378   Change is   -0.000000000447943
 Root      9 :     7.398783628392025   Change is   -0.000000001182438
 Root     10 :     7.515815311585159   Change is   -0.000000044927272
 Iteration    11 Dimension   224 NMult   214 NNew     10
 CISAX will form    10 AO SS matrices at one time.
 NMat=    10 NSing=    10 JSym2X= 0.
 Root      1 has converged.
 Root      2 has converged.
 Root      3 has converged.
 Root      4 has converged.
 Root      5 has converged.
 Root      6 has converged.
 Root      7 has converged.
 Root      8 has converged.
 Root      9 has converged.
 Root     10 not converged, maximum delta is    0.000011084359169
 Excitation Energies [eV] at current iteration:
 Root      1 :     5.034705148389607   Change is   -0.000000000000343
 Root      2 :     5.533421027466526   Change is   -0.000000000000119
 Root      3 :     6.272550539637850   Change is   -0.000000000005504
 Root      4 :     6.481110460498932   Change is   -0.000000000000418
 Root      5 :     6.763930930647166   Change is   -0.000000000103903
 Root      6 :     6.790032686545011   Change is   -0.000000000001090
 Root      7 :     7.133878818235135   Change is   -0.000000000041555
 Root      8 :     7.253551302147959   Change is   -0.000000000034419
 Root      9 :     7.398783628285116   Change is   -0.000000000106910
 Root     10 :     7.515815306887252   Change is   -0.000000004697908
 Iteration    12 Dimension   226 NMult   224 NNew      2
 CISAX will form     2 AO SS matrices at one time.
 NMat=     2 NSing=     2 JSym2X= 0.
 Root      1 has converged.
 Root      2 has converged.
 Root      3 has converged.
 Root      4 has converged.
 Root      5 has converged.
 Root      6 has converged.
 Root      7 has converged.
 Root      8 has converged.
 Root      9 has converged.
 Root     10 not converged, maximum delta is    0.000002793910473
 Excitation Energies [eV] at current iteration:
 Root      1 :     5.034705148389590   Change is   -0.000000000000017
 Root      2 :     5.533421027466496   Change is   -0.000000000000029
 Root      3 :     6.272550539637733   Change is   -0.000000000000118
 Root      4 :     6.481110460498842   Change is   -0.000000000000089
 Root      5 :     6.763930930646144   Change is   -0.000000000001021
 Root      6 :     6.790032686544878   Change is   -0.000000000000133
 Root      7 :     7.133878818235055   Change is   -0.000000000000080
 Root      8 :     7.253551302147778   Change is   -0.000000000000181
 Root      9 :     7.398783628284772   Change is   -0.000000000000344
 Root     10 :     7.515815306412490   Change is   -0.000000000474761
 Iteration    13 Dimension   228 NMult   226 NNew      2
 CISAX will form     2 AO SS matrices at one time.
 NMat=     2 NSing=     2 JSym2X= 0.
 Root      1 has converged.
 Root      2 has converged.
 Root      3 has converged.
 Root      4 has converged.
 Root      5 has converged.
 Root      6 has converged.
 Root      7 has converged.
 Root      8 has converged.
 Root      9 has converged.
 Root     10 has converged.
 Excitation Energies [eV] at current iteration:
 Root      1 :     5.034705148389574   Change is   -0.000000000000016
 Root      2 :     5.533421027466556   Change is    0.000000000000060
 Root      3 :     6.272550539637706   Change is   -0.000000000000026
 Root      4 :     6.481110460498842   Change is    0.000000000000000
 Root      5 :     6.763930930645938   Change is   -0.000000000000206
 Root      6 :     6.790032686544830   Change is   -0.000000000000048
 Root      7 :     7.133878818235043   Change is   -0.000000000000012
 Root      8 :     7.253551302147789   Change is    0.000000000000012
 Root      9 :     7.398783628284616   Change is   -0.000000000000156
 Root     10 :     7.515815306367906   Change is   -0.000000000044583
 Convergence achieved on expansion vectors.
 ***********************************************************************
 Excited states from <AA,BB:AA,BB> singles matrix:
 ***********************************************************************
 
 1PDM for each excited state written to RWF  633
 Ground to excited state transition densities written to RWF  633
 Ground to excited state transition electric dipole moments (Au):
       state          X           Y           Z        Dip. S.      Osc.
         1        -1.6834      0.4796     -0.0296      3.0647      0.3780
         2         0.0286      0.0074      0.0115      0.0010      0.0001
         3        -0.2258     -1.6053     -0.1402      2.6476      0.4069
         4         0.0029      0.0596     -0.1525      0.0268      0.0043
         5        -0.8148      0.8148      0.0394      1.3293      0.2203
         6        -0.0263      0.0842     -0.0176      0.0081      0.0013
         7         0.0165      0.0180     -0.1235      0.0159      0.0028
         8         0.0272      0.0196     -0.0811      0.0077      0.0014
         9         0.0021      0.0260      0.0711      0.0057      0.0010
        10         0.8925     -0.3992      0.0097      0.9561      0.1760
 Ground to excited state transition velocity dipole moments (Au):
       state          X           Y           Z        Dip. S.      Osc.
         1         0.3110     -0.0914      0.0052      0.1051      0.3787
         2        -0.0060     -0.0018     -0.0093      0.0001      0.0004
         3         0.0467      0.3671      0.0322      0.1380      0.3991
         4        -0.0005     -0.0140      0.0379      0.0016      0.0046
         5         0.1961     -0.1983     -0.0097      0.0779      0.2089
         6         0.0052     -0.0215      0.0061      0.0005      0.0014
         7        -0.0039     -0.0044      0.0311      0.0010      0.0026
         8        -0.0068     -0.0050      0.0205      0.0005      0.0012
         9        -0.0012     -0.0077     -0.0109      0.0002      0.0004
        10        -0.2398      0.1078     -0.0025      0.0691      0.1668
 Ground to excited state transition magnetic dipole moments (Au):
       state          X           Y           Z
         1         0.0417      0.0614     -1.7713
         2        -0.7394     -0.0163      0.0279
         3         0.0662     -0.0724      0.8143
         4         0.0807     -0.2347     -0.0495
         5        -0.0443     -0.0375     -0.5020
         6        -0.2727      0.6943     -0.0374
         7         0.3474      0.3763      0.0312
         8         0.1238      0.1363      0.0094
         9        -0.3595      0.2668     -0.0219
        10        -0.0063      0.0644      0.0848
 Ground to excited state transition velocity quadrupole moments (Au):
       state          XX          YY          ZZ          XY          XZ          YZ
         1         0.2941     -0.3502     -0.0140      0.7086     -0.0002      0.0202
         2         0.0525      0.0085     -0.0039      0.0149      0.0313     -0.0573
         3        -0.3216      1.1000      0.0592      0.5148      0.0346      0.0420
         4        -0.0101     -0.0276      0.0017     -0.0237      0.1999      0.0741
         5        -0.6331     -0.2775      0.0120      0.3019     -0.0327      0.0423
         6         0.0133      0.0602     -0.0090      0.0292     -0.0386     -0.0301
         7         0.0793     -0.0602     -0.0011      0.0204     -0.2681      0.2324
         8         0.0219      0.0600     -0.0417      0.0310     -0.1281      0.0296
         9         0.0379      0.0066     -0.0199     -0.0154     -0.0545     -0.0570
        10         0.1154     -0.1789     -0.1060     -0.1697      0.0670     -0.0513
 <0|del|b> * <b|rxdel|0> + <0|del|b> * <b|delr+rdel|0>
 Rotatory Strengths (R) in cgs (10**-40 erg-esu-cm/Gauss)
       state          XX          YY          ZZ    R(velocity)    E-M Angle
         1       -21.3021     12.1798      2.0643     -2.3527       90.18
         2        -0.5455      8.1063      7.0736      4.8781       59.61
         3         5.3959     22.5525    -19.5414      2.8023       89.48
         4         4.9223     -1.5775      0.7185      1.3544       82.32
         5         4.1107     10.5612     -4.3538      3.4393       88.53
         6       -22.4450     -2.7887    -21.7924    -15.6753      165.32
         7        -1.6822     -2.6256     -1.2574     -1.8551       97.29
         8        -0.6673     -1.9730     -0.9066     -1.1823      109.09
         9        -2.6719      0.7529     -1.6345     -1.1845      103.20
        10        -0.0942     16.8648      4.2995      7.0233       72.93
 1/2[<0|r|b>*<b|rxdel|0> + (<0|rxdel|b>*<b|r|0>)*]
 Rotatory Strengths (R) in cgs (10**-40 erg-esu-cm/Gauss)
       state          XX          YY          ZZ     R(length)
         1        49.5851    -20.8200    -37.0612     -2.7653
         2        14.9658      0.0859     -0.2268      4.9416
         3        10.5733    -82.1852     80.7103      3.0328
         4        -0.1650      9.8952     -5.3394      1.4636
         5       -25.5282     21.5925     13.9689      3.3444
         6        -5.0736    -41.3603     -0.4649    -15.6329
         7        -4.0531     -4.7901      2.7258     -2.0391
         8        -2.3811     -1.8880      0.5416     -1.2425
         9         0.5310     -4.9027      1.1016     -1.0900
        10         3.9505     18.1766     -0.5787      7.1828
  1/2[<0|del|b>*<b|r|0> + (<0|r|b>*<b|del|0>)*] (Au)
       state          X           Y           Z        Dip. S.   Osc.(frdel)
         1        -0.5236     -0.0438     -0.0002      0.5676      0.3784
         2        -0.0002     -0.0000     -0.0001      0.0003      0.0002
         3        -0.0106     -0.5893     -0.0045      0.6044      0.4029
         4        -0.0000     -0.0008     -0.0058      0.0066      0.0044
         5        -0.1597     -0.1616     -0.0004      0.3217      0.2145
         6        -0.0001     -0.0018     -0.0001      0.0021      0.0014
         7        -0.0001     -0.0001     -0.0038      0.0040      0.0027
         8        -0.0002     -0.0001     -0.0017      0.0019      0.0013
         9        -0.0000     -0.0002     -0.0008      0.0010      0.0006
        10        -0.2140     -0.0430     -0.0000      0.2570      0.1714

 Excitation energies and oscillator strengths:
 
 Excited State   1:      Singlet-A      5.0347 eV  246.26 nm  f=0.3780  <S**2>=0.000
      53 -> 54         0.69708
 
 Excited State   2:      Singlet-A      5.5334 eV  224.06 nm  f=0.0001  <S**2>=0.000
      49 -> 54        -0.16849
      52 -> 54         0.63591
      52 -> 56         0.18810
 
 Excited State   3:      Singlet-A      6.2726 eV  197.66 nm  f=0.4069  <S**2>=0.000
      53 -> 56         0.69206
 
 Excited State   4:      Singlet-A      6.4811 eV  191.30 nm  f=0.0043  <S**2>=0.000
      53 -> 55         0.64782
      53 -> 57         0.10002
      53 -> 58        -0.12116
      53 -> 62        -0.19555
 
 Excited State   5:      Singlet-A      6.7639 eV  183.30 nm  f=0.2203  <S**2>=0.000
      50 -> 54         0.50670
      51 -> 54        -0.45107
 
 Excited State   6:      Singlet-A      6.7900 eV  182.60 nm  f=0.0013  <S**2>=0.000
      47 -> 56         0.14550
      49 -> 54        -0.20994
      49 -> 56         0.43850
      52 -> 54        -0.13914
      52 -> 56         0.40577
 This state for optimization and/or second-order correction.
 Total Energy, E(TD-HF/TD-DFT) =  -759.641331781    
 Copying the excited state density for this state as the 1-particle RhoCI density.
 
 Excited State   7:      Singlet-A      7.1339 eV  173.80 nm  f=0.0028  <S**2>=0.000
      53 -> 57         0.62464
      53 -> 58         0.14178
      53 -> 60        -0.20251
      53 -> 62         0.10852
 
 Excited State   8:      Singlet-A      7.2536 eV  170.93 nm  f=0.0014  <S**2>=0.000
      53 -> 55         0.10836
      53 -> 57        -0.10207
      53 -> 58         0.64097
      53 -> 60         0.14039
 
 Excited State   9:      Singlet-A      7.3988 eV  167.57 nm  f=0.0010  <S**2>=0.000
      47 -> 54         0.11378
      49 -> 54         0.61117
      49 -> 56         0.13383
      52 -> 54         0.12423
      52 -> 56         0.20383
 
 Excited State  10:      Singlet-A      7.5158 eV  164.96 nm  f=0.1760  <S**2>=0.000
      50 -> 56        -0.29460
      51 -> 56         0.26971
      53 -> 59         0.53685
 SavETr:  write IOETrn=   770 NScale= 10 NData=  16 NLR=1 NState=   10 LETran=     190.
 The selected state is a singlet.
 CISGrd: IGrad=3 NXY=2 DFT=T
 CISAX will form     1 AO SS matrices at one time.
 NMat=     1 NSing=     1 JSym2X= 0.
 GePol: Maximum number of non-zero 1st derivatives   =     266
 GePol: Maximum number of non-zero 2nd derivatives   =     266
 Leave Link  914 at Thu Jan  5 15:14:12 2023, MaxMem=  1342177280 cpu:            6571.8 elap:             131.7
 (Enter /shared/gaussian/g16.b01/AVX2/g16/l1002.exe)
 Minotr:  Closed shell wavefunction.
          Computing CIS/TDA/TD derivatives.
          Using Z-Vector for PSCF gradient.
          Skipping F1 and S1 gradient terms here.
          IDoAtm=111111111111111111111111111
 NEqPCM:  Using equilibrium solvation (IEInf=0, Eps=  78.3553, EpsInf=   1.7778)
          Frozen-core window.
          Direct CPHF calculation.
          Differentiating once with respect to electric field.
                with respect to dipole field.
          Differentiating once with respect to nuclear coordinates.
          Requested convergence is 1.0D-10 RMS, and 1.0D-09 maximum.
          NewPWx=F KeepS1=T KeepF1=T KeepIn=T MapXYZ=F SortEE=F KeepMc=T.
 Two-electron integral symmetry used by symmetrizing perturbed Fock matrices.
          MDV=    1342177280 using IRadAn=       5.
          Solving linear equations separately, MaxMat=     350.
          There are     1 degrees of freedom in the 1st order CPHF.  IDoFFX=0 NUNeed=     1.
 FoFJK:  IHMeth= 1 ICntrl=       0 DoSepK=T KAlg= 0 I1Cent=           0 FoldK=F
 IRaf=         1 NMat=       1 IRICut=       1 DoRegI=T DoRafI=F ISym2E=-1 IDoP0=0 IntGTp=1.
 FoFCou: FMM=F IPFlag=           0 FMFlag=      100000 FMFlg1=           0
         NFxFlg=           0 DoJE=T BraDBF=F KetDBF=F FulRan=T
         wScrn=  0.000000 ICntrl=       500 IOpCl=  0 I1Cent=           0 NGrid=           0
         NMat0=    1 NMatS0=      1 NMatT0=    0 NMatD0=    1 NMtDS0=    0 NMtDT0=    0
 Petite list used in FoFCou.
 LinEq1:  Iter=  0 NonCon=     1 RMS=8.50D-03 Max=2.97D-01 NDo=     1
 AX will form     1 AO Fock derivatives at one time.
 LinEq1:  Iter=  1 NonCon=     1 RMS=2.20D-03 Max=7.24D-02 NDo=     1
 LinEq1:  Iter=  2 NonCon=     1 RMS=1.51D-03 Max=9.50D-02 NDo=     1
 LinEq1:  Iter=  3 NonCon=     1 RMS=6.35D-04 Max=2.14D-02 NDo=     1
 LinEq1:  Iter=  4 NonCon=     1 RMS=4.60D-04 Max=2.98D-02 NDo=     1
 LinEq1:  Iter=  5 NonCon=     1 RMS=2.03D-04 Max=9.24D-03 NDo=     1
 LinEq1:  Iter=  6 NonCon=     1 RMS=1.05D-04 Max=2.98D-03 NDo=     1
 LinEq1:  Iter=  7 NonCon=     1 RMS=4.53D-05 Max=1.93D-03 NDo=     1
 LinEq1:  Iter=  8 NonCon=     1 RMS=2.06D-05 Max=6.87D-04 NDo=     1
 LinEq1:  Iter=  9 NonCon=     1 RMS=6.13D-06 Max=1.53D-04 NDo=     1
 LinEq1:  Iter= 10 NonCon=     1 RMS=3.69D-06 Max=1.49D-04 NDo=     1
 LinEq1:  Iter= 11 NonCon=     1 RMS=1.13D-06 Max=2.11D-05 NDo=     1
 LinEq1:  Iter= 12 NonCon=     1 RMS=6.23D-07 Max=1.76D-05 NDo=     1
 LinEq1:  Iter= 13 NonCon=     1 RMS=2.25D-07 Max=1.01D-05 NDo=     1
 LinEq1:  Iter= 14 NonCon=     1 RMS=8.30D-08 Max=2.52D-06 NDo=     1
 LinEq1:  Iter= 15 NonCon=     1 RMS=4.74D-08 Max=2.37D-06 NDo=     1
 LinEq1:  Iter= 16 NonCon=     1 RMS=1.42D-08 Max=3.71D-07 NDo=     1
 LinEq1:  Iter= 17 NonCon=     1 RMS=7.17D-09 Max=1.52D-07 NDo=     1
 LinEq1:  Iter= 18 NonCon=     1 RMS=1.95D-09 Max=5.03D-08 NDo=     1
 LinEq1:  Iter= 19 NonCon=     1 RMS=9.05D-10 Max=2.82D-08 NDo=     1
 LinEq1:  Iter= 20 NonCon=     1 RMS=4.68D-10 Max=1.95D-08 NDo=     1
 LinEq1:  Iter= 21 NonCon=     1 RMS=1.36D-10 Max=5.98D-09 NDo=     1
 LinEq1:  Iter= 22 NonCon=     1 RMS=7.87D-11 Max=3.13D-09 NDo=     1
 LinEq1:  Iter= 23 NonCon=     1 RMS=2.92D-11 Max=1.01D-09 NDo=     1
 LinEq1:  Iter= 24 NonCon=     0 RMS=1.68D-11 Max=4.09D-10 NDo=     1
 Linear equations converged to 1.000D-10 1.000D-09 after    24 iterations.
          There are     1 degrees of freedom in the 1st order CPHF.  IDoFFX=0 NUNeed=     1.
 End of Minotr F.D. properties file   721 does not exist.
 End of Minotr F.D. properties file   722 does not exist.
 End of Minotr F.D. properties file   788 does not exist.
 Leave Link 1002 at Thu Jan  5 15:15:03 2023, MaxMem=  1342177280 cpu:            2557.0 elap:              51.5
 (Enter /shared/gaussian/g16.b01/AVX2/g16/l1101.exe)
 Using compressed Sx but separate Hx and Fx, NAtomX=    27.
 Will process     28 centers per pass.
 Leave Link 1101 at Thu Jan  5 15:15:04 2023, MaxMem=  1342177280 cpu:              18.9 elap:               0.4
 (Enter /shared/gaussian/g16.b01/AVX2/g16/l1102.exe)
 Use density number 6.
 Symmetrizing basis deriv contribution to polar:
 IMax=3 JMax=2 DiffMx= 0.00D+00
 Leave Link 1102 at Thu Jan  5 15:15:04 2023, MaxMem=  1342177280 cpu:               1.3 elap:               0.0
 (Enter /shared/gaussian/g16.b01/AVX2/g16/l1110.exe)
 Forming Gx(P) for the SCF density, NAtomX=    27.
 Integral derivatives from FoFJK, PRISM(SPDF).
 Do as many integral derivatives as possible in FoFJK.
 G2DrvN: MDV=    1342174984.
 G2DrvN: will do    28 centers at a time, making    1 passes.
 Calling FoFCou, ICntrl=  3107 FMM=F I1Cent=   0 AccDes= 0.00D+00.
 FoFJK:  IHMeth= 1 ICntrl=    3107 DoSepK=T KAlg= 0 I1Cent=           0 FoldK=F
 IRaf=         1 NMat=       1 IRICut=       1 DoRegI=T DoRafI=F ISym2E= 0 IDoP0=0 IntGTp=1.
 FoFCou: FMM=F IPFlag=           0 FMFlag=      100000 FMFlg1=           0
         NFxFlg=           0 DoJE=F BraDBF=F KetDBF=F FulRan=T
         wScrn=  0.000000 ICntrl=      3507 IOpCl=  0 I1Cent=           0 NGrid=           0
         NMat0=    1 NMatS0=      1 NMatT0=    0 NMatD0=    1 NMtDS0=    0 NMtDT0=    0
 Symmetry not used in FoFCou.
 NEqPCM:  Using equilibrium solvation (IEInf=0, Eps=  78.3553, EpsInf=   1.7778)
 G2PCM: DoFxE=T DoFxN=T DoGrad=T DoDP/DQ/DG/TGxP=FFFF NFrqRd=   0 IEInf=0 SqF1=F DoCFld=F IF1Alg=4.
 Forming Gx(P) for generalized density number  6 NAtomX=    27.
 Integral derivatives from FoFJK, PRISM(SPDF).
 Do as many integral derivatives as possible in FoFJK.
 G2DrvN: MDV=    1342174984.
 G2DrvN: will do    28 centers at a time, making    1 passes.
 Calling FoFCou, ICntrl=  3107 FMM=F I1Cent=   0 AccDes= 0.00D+00.
 NEqPCM:  Using equilibrium solvation (IEInf=0, Eps=  78.3553, EpsInf=   1.7778)
 G2PCM: DoFxE=T DoFxN=F DoGrad=F DoDP/DQ/DG/TGxP=FFFF NFrqRd=   0 IEInf=0 SqF1=F DoCFld=F IF1Alg=4.
 Forming Gx(T) for CIS/TDA/TD state  6 NAtomX=    27.
 Integral derivatives from FoFJK, PRISM(SPDF).
 Do as many integral derivatives as possible in FoFJK.
 G2DrvN: MDV=    1342174984.
 G2DrvN: will do    28 centers at a time, making    1 passes.
 Calling FoFCou, ICntrl=  3107 FMM=F I1Cent=   0 AccDes= 0.00D+00.
 NEqPCM:  Using equilibrium solvation (IEInf=0, Eps=  78.3553, EpsInf=   1.7778)
 G2PCM: DoFxE=T DoFxN=F DoGrad=F DoDP/DQ/DG/TGxP=FFFF NFrqRd=   0 IEInf=0 SqF1=T DoCFld=F IF1Alg=4.
 End of G2Drv F.D. properties file   721 does not exist.
 End of G2Drv F.D. properties file   722 does not exist.
 End of G2Drv F.D. properties file   788 does not exist.
 Leave Link 1110 at Thu Jan  5 15:16:06 2023, MaxMem=  1342177280 cpu:            3134.1 elap:              62.8
 (Enter /shared/gaussian/g16.b01/AVX2/g16/l1002.exe)
 Minotr:  Closed shell wavefunction.
          IDoAtm=111111111111111111111111111
 NEqPCM:  Using equilibrium solvation (IEInf=0, Eps=  78.3553, EpsInf=   1.7778)
          Frozen-core window.
          Direct CPHF calculation.
          Differentiating once with respect to electric field.
                with respect to dipole field.
          Differentiating once with respect to nuclear coordinates.
          Requested convergence is 1.0D-08 RMS, and 1.0D-07 maximum.
          Secondary convergence is 1.0D-12 RMS, and 1.0D-12 maximum.
          NewPWx=T KeepS1=T KeepF1=T KeepIn=T MapXYZ=F SortEE=F KeepMc=T.
         8369 words used for storage of precomputed grid.
 Two-electron integrals replicated using symmetry.
          MDV=    1342177280 using IRadAn=       1.
          Solving linear equations simultaneously, MaxMat=     350.
 FoF2E skips out because all densities are zero.
 CalDSu exits because no D1Ps are significant.
 FoFJK:  IHMeth= 1 ICntrl=       0 DoSepK=T KAlg= 0 I1Cent=           0 FoldK=F
 IRaf=         1 NMat=      81 IRICut=       1 DoRegI=T DoRafI=F ISym2E= 2 IDoP0=3 IntGTp=3.
          There are    84 degrees of freedom in the 1st order CPHF.  IDoFFX=6 NUNeed=    84.
     81 vectors produced by pass  0 Test12= 2.00D-14 1.19D-09 XBig12= 7.41D+01 5.27D+00.
 AX will form    81 AO Fock derivatives at one time.
     81 vectors produced by pass  1 Test12= 2.00D-14 1.19D-09 XBig12= 9.97D+00 4.21D-01.
     81 vectors produced by pass  2 Test12= 2.00D-14 1.19D-09 XBig12= 2.17D-01 5.63D-02.
     81 vectors produced by pass  3 Test12= 2.00D-14 1.19D-09 XBig12= 1.60D-03 3.52D-03.
     81 vectors produced by pass  4 Test12= 2.00D-14 1.19D-09 XBig12= 8.11D-06 2.28D-04.
     81 vectors produced by pass  5 Test12= 2.00D-14 1.19D-09 XBig12= 3.72D-08 1.49D-05.
     63 vectors produced by pass  6 Test12= 2.00D-14 1.19D-09 XBig12= 1.66D-10 9.93D-07.
     13 vectors produced by pass  7 Test12= 2.00D-14 1.19D-09 XBig12= 6.30D-13 9.29D-08.
[...]
 0036878,-0.00003091,-0.00011747,-0.00001798,-0.00002738,0.00003483,-0.
 00001462,-0.00003063,0.00003068,0.00002030,0.00002834,-0.00001663,-0.0
 0000179,0.15101446,-0.11084956,-0.07021760,0.00046797,0.00021649,0.000
 03627,0.00019835,-0.00003363,-0.00003047,-0.00021706,-0.00910121,0.000
 14107,-0.15155470,0.11818905,-0.00051141,-0.00126963,-0.00039125,0.000
 67254,-0.00041534,0.00009468,-0.00013852,0.00010053,-0.00002955,-0.000
 05424,0.00008267,0.00000219,0.00034607,-0.00000125,0.00011406,-0.00117
 876,0.00073276,0.00001414,0.00156422,0.00227809,0.00118319,-0.00037733
 ,0.00009671,0.00000678,-0.00000838,-0.00003854,-0.00001025,-0.00002361
 ,0.00001574,-0.00000074,0.00147578,0.00018250,-0.00038018,-0.00004794,
 -0.00002212,-0.00000901,-0.00000445,-0.00000630,-0.00000276,0.00000417
 ,-0.00000454,-0.00000552,0.00000609,-0.00002376,-0.00000335,0.05625221
 ,-0.05255453,-0.07646155,0.00058565,0.00009952,0.00004885,0.00002568,0
 .00001105,0.00000311,-0.00192203,-0.00221822,0.00166931,-0.08806344,0.
 06721348,0.09242779,-0.00078174,-0.00140542,0.00040404,0.00019328,-0.0
 0024618,-0.00011944,-0.00008824,-0.00005349,0.00006101,-0.00006973,0.0
 0008685,0.00002135,0.00011491,-0.00011447,-0.00006807,-0.00046819,0.00
 035163,0.00007871,0.00114751,0.00143590,-0.00214000,-0.00005084,0.0000
 7965,-0.00002540,0.00000646,-0.00002705,-0.00000609,-0.00001024,0.0000
 0175,0.00000436,0.00021978,-0.00002085,-0.00000321,-0.00002849,0.00000
 591,-0.00002347,0.00000256,-0.00001068,0.00000309,0.00001004,-0.000011
 00,-0.00000486,0.00000185,-0.00001587,-0.00000279,-0.05918241,-0.02509
 759,-0.11339315,0.00014987,-0.00008033,-0.00011230,-0.00000608,0.00000
 973,0.00001064,-0.00011104,-0.00028996,0.00005500,0.00949809,0.0095718
 7,0.03418333,0.05142504,-0.00076919,-0.00021105,0.00036466,-0.00016263
 ,-0.00014955,-0.00010748,0.00003965,0.00002632,0.00008732,-0.00007584,
 0.00004009,0.00000054,0.00014073,0.00006960,-0.00003092,-0.00005927,-0
 .00025991,-0.00002039,0.00031276,-0.00031842,-0.00185393,0.00009009,-0
 .00008686,-0.00000900,-0.00001730,0.00000251,0.00000029,-0.00000423,0.
 00000354,0.00000152,0.00002296,0.00002273,0.00006299,0.00000367,-0.000
 00258,-0.00001574,-0.00000014,0.00000093,0.00000256,-0.00000228,0.0000
 0019,0.00000342,0.00000117,-0.00000030,-0.00000040,-0.00803092,-0.0615
 3160,-0.14252913,-0.00008676,0.00002357,-0.00001705,0.00001459,-0.0000
 0566,-0.00000121,-0.00005007,0.00010850,-0.00013841,-0.00713893,-0.005
 86853,-0.02037653,0.01457859,0.06774984,0.00094510,0.00151300,0.000201
 24,-0.00017012,0.00013034,-0.00039082,0.00007935,0.00005297,0.00007522
 ,0.00011267,-0.00006937,0.00003749,-0.00005037,0.00018101,0.00001161,0
 .00022223,-0.00062092,0.00003649,-0.00207565,-0.00199387,-0.00013966,0
 .00008078,-0.00007106,0.00014972,-0.00002408,0.00002937,0.00002286,0.0
 0000889,0.00000025,-0.00000713,-0.00000523,0.00021582,-0.00002197,0.00
 003304,-0.00001817,-0.00000681,-0.00000745,0.00002111,-0.00000169,-0.0
 0001401,0.00001395,0.00001020,0.00000081,0.00001841,0.00000242,-0.0738
 3091,-0.16038429,-0.45491841,-0.00011074,-0.00000804,-0.00000364,0.000
 02874,-0.00001538,-0.00002099,0.00005401,-0.00025873,0.00002390,-0.006
 21508,-0.00276365,-0.01291879,0.08235322,0.16300897,0.46860921,-0.0001
 9532,0.00169277,0.00032624,0.00005877,-0.00011212,-0.00278176,0.000479
 97,0.00129095,0.00124899,-0.00056668,-0.00067879,0.00044451,0.00119207
 ,0.00114626,0.00012754,-0.00057160,-0.00207165,0.00019303,-0.00106952,
 -0.00159680,0.00009184,-0.00390466,-0.00671342,0.00227670,-0.00003345,
 0.00008049,0.00002395,-0.00010313,0.00009341,-0.00009268,0.00122840,0.
 00004717,-0.00020403,-0.00006595,0.00002358,-0.00005774,0.00000580,0.0
 0001395,-0.00000099,0.00000572,-0.00001056,0.00002151,0.00000202,-0.00
 004359,0.00000111,-0.00774639,0.00704753,-0.00426239,-0.23803321,-0.22
 368632,0.09623570,0.00004608,0.00004288,-0.00004878,-0.00051505,-0.000
 52539,0.00013696,0.00178573,-0.00092105,-0.00283518,-0.00077571,0.0011
 5406,0.00054002,0.61708348,-0.00105209,-0.00030887,0.00014549,0.002304
 48,-0.00003279,-0.00482372,-0.00006979,0.00209427,0.00192203,-0.000062
 36,-0.00124241,0.00054181,0.00080974,0.00108786,0.00005320,-0.00135633
 ,-0.00091392,0.00063465,-0.00018779,0.00141644,-0.00042368,-0.00566684
 ,-0.00452508,0.00279487,0.00003027,-0.00003482,0.00004268,-0.00011924,
 0.00011086,-0.00016255,0.00193968,-0.00039011,-0.00029078,-0.00018484,
 0.00001538,-0.00011168,0.00003540,0.00003435,0.00000546,0.00000518,-0.
 00002267,0.00003715,0.00000466,-0.00008943,-0.00000700,0.00605358,-0.0
 0169747,0.00260044,-0.18160111,-0.24416672,0.11110513,0.00000878,0.000
 16413,-0.00006928,-0.00073111,-0.00023163,0.00015372,-0.00055609,0.000
 55218,0.00171199,0.00089514,-0.00095617,-0.00000260,0.05774704,0.35206
 674,0.00071209,-0.00021167,-0.00005194,-0.00120916,0.00077140,0.000283
 87,0.00007780,-0.00098972,0.00033678,-0.00010386,0.00046535,-0.0001771
 2,-0.00023632,-0.00045791,0.00003210,0.00019227,0.00041642,-0.00023222
 ,-0.00030447,-0.00063837,-0.00022137,0.00178057,0.00110219,-0.00005833
 ,0.00001679,0.00002792,-0.00003681,0.00006765,-0.00004133,-0.00007193,
 -0.00048336,0.00018928,0.00016610,0.00009298,0.00001200,-0.00002348,0.
 00001114,-0.00000686,0.00002011,-0.00002361,-0.00002853,-0.00000859,-0
 .00000343,0.00003538,-0.00000528,-0.00587680,0.00421523,0.00099323,0.0
 7175724,0.10488008,-0.05542365,-0.00006108,-0.00004963,0.00005250,0.00
 028193,0.00000902,-0.00008645,0.00072159,-0.00031476,-0.00194900,0.000
 13902,-0.00003299,0.00046627,0.05131898,-0.18668217,0.12320586,-0.0001
 6408,-0.00079967,0.00008405,-0.00140469,-0.00064389,0.00045035,-0.0001
 0111,-0.00094301,-0.00037485,0.00005361,0.00043420,0.00004261,-0.00052
 767,-0.00073003,-0.00018194,0.00046670,0.00087084,0.00001472,0.0019028
 9,0.00123100,0.00033627,0.00143129,0.00007669,0.00003397,0.00001233,-0
 .00002105,-0.00003143,0.00005794,-0.00005520,0.00005254,-0.00093591,-0
 .00000045,0.00006236,0.00004506,0.00001934,0.00003132,-0.00001599,-0.0
 0002962,0.00000254,0.00002461,0.00000423,-0.00002334,-0.00000517,0.000
 03027,0.00000726,-0.00062029,-0.00344953,0.00145573,-0.02979139,0.0138
 8116,-0.01207581,0.00003383,-0.00003168,-0.00002772,0.00040946,0.00055
 979,-0.00008448,-0.00298867,0.00162086,0.00257945,0.00060070,-0.001050
 00,-0.00135762,-0.36767651,0.12113589,-0.11839533,0.39835101,0.0001586
 0,0.00132352,-0.00006567,-0.00051802,0.00002958,0.00015987,0.00018850,
 0.00004132,0.00016481,-0.00006259,-0.00000232,-0.00003461,0.00018128,0
 .00037868,0.00013506,0.00054138,-0.00109270,-0.00014137,-0.00103415,-0
 .00312560,0.00069025,-0.00081149,-0.00123781,0.00021956,-0.00004653,0.
 00006511,-0.00000212,-0.00000523,0.00001643,-0.00002501,-0.00008770,0.
 00023863,-0.00000502,0.00006680,-0.00001522,-0.00000608,-0.00000727,0.
 00002173,-0.00000411,-0.00002330,0.00001063,0.00001219,0.00000114,0.00
 002457,-0.00000017,-0.00141778,-0.00118368,-0.00037048,-0.03027962,0.0
 1022855,-0.00909375,0.00003555,-0.00002228,-0.00000294,-0.00001562,-0.
 00026987,0.00004849,0.00157707,-0.00185284,-0.00283650,-0.00154511,0.0
 0193888,0.00022178,0.16476205,-0.10252028,0.07681531,-0.13078424,0.095
 85097,-0.00017391,-0.00063870,-0.00005326,-0.00009663,-0.00026069,0.00
 033293,-0.00005107,-0.00019773,-0.00031833,-0.00005577,0.00014984,0.00
 000041,-0.00006997,-0.00026073,-0.00007981,-0.00005203,0.00049403,0.00
 002175,0.00095077,0.00160489,0.00037005,0.00062005,0.00071423,0.000094
 55,0.00001336,-0.00003182,-0.00001169,0.00000546,-0.00001484,0.0000461
 8,-0.00025836,-0.00012088,-0.00000191,-0.00002336,0.00001095,0.0000239
 3,-0.00000394,-0.00001911,-0.00000310,0.00002166,-0.00000132,-0.000012
 54,-0.00000112,-0.00000629,0.00000189,0.00326001,-0.00394963,-0.005649
 39,0.01296526,-0.00316579,0.00486304,0.00000570,0.00000355,0.00000295,
 0.00008675,0.00031821,-0.00001656,-0.00164843,0.00069306,0.00357302,-0
 .00111345,0.00121661,-0.00184571,-0.14320170,0.07098260,-0.06744929,0.
 12792504,-0.06634313,0.06669134,-0.00260266,0.00258200,0.00022724,-0.0
 0081880,-0.00119114,-0.00251430,-0.00117168,0.00387379,0.00018252,0.00
 045942,-0.00139267,0.00023688,0.00089058,0.00225760,0.00028965,0.00016
 566,-0.00272137,0.00050839,-0.00031147,-0.00072617,0.00012503,0.001965
 88,0.00027846,0.00096083,0.00144679,0.00129026,0.00017218,-0.00021962,
 0.00016966,-0.00000345,0.00195560,-0.00060279,-0.00047983,-0.00023889,
 -0.00005680,-0.00005560,0.00003008,0.00007014,-0.00003639,-0.00001051,
 0.00003458,0.00007567,0.00000596,-0.00013815,-0.00001321,0.00004320,0.
 00034049,0.00006968,-0.00000700,0.00050134,-0.00038431,-0.31561122,-0.
 19349144,-0.03823826,-0.00146213,-0.00069999,0.00035339,-0.00000868,-0
 .00023963,-0.00004364,0.00000125,-0.00001298,-0.00003258,-0.00011176,-
 0.00027987,0.00019874,0.00000662,0.00002679,-0.00002498,0.33693643,0.0
 0079791,-0.00172941,0.00011844,0.00538298,0.00000899,0.00179152,-0.002
 00335,0.00112698,-0.00016085,0.00103963,-0.00106151,-0.00023393,-0.002
 36968,-0.00118633,-0.00037224,0.00222601,0.00289595,0.00011322,0.00021
 159,0.00027905,-0.00017376,0.00186702,0.00060424,-0.00099068,0.0007307
 8,-0.00678352,-0.00118737,0.00007712,-0.00000454,0.00005941,-0.0024232
 2,0.00000995,0.00011026,-0.00000978,-0.00011337,0.00000201,-0.00007405
 ,0.00004982,-0.00001550,-0.00002464,0.00007456,-0.00000426,0.00001105,
 0.00007053,0.00000661,-0.00007392,-0.00016909,-0.00002520,-0.00027182,
 0.00013340,-0.00004961,-0.22637960,-0.17255834,-0.05721319,0.00060678,
 0.00031283,-0.00013103,0.00001712,0.00008839,0.00000689,-0.00000419,0.
 00000741,0.00001487,0.00001123,-0.00016529,0.00006709,0.00004487,0.000
 03260,-0.00000670,0.20915415,0.17315612,-0.00064379,0.00052070,-0.0016
 8223,-0.00108429,0.00237282,0.00053921,0.00054054,0.00064671,0.0014882
 7,0.00010205,-0.00099673,-0.00026182,0.00035792,0.00059399,0.00063155,
 -0.00146462,-0.00145607,-0.00065207,-0.00001644,0.00012886,0.00038991,
 -0.00010313,-0.00240920,0.00134849,-0.00048094,0.00038330,0.00155327,0
 .00003179,0.00001439,-0.00023058,0.00170609,0.00005772,0.00013805,-0.0
 0001335,-0.00000007,-0.00001539,0.00005941,0.00003950,0.00002301,-0.00
 005288,-0.00001904,0.00002194,0.00000108,-0.00000575,-0.00000631,0.000
 00244,-0.00003726,-0.00001238,0.00007357,-0.00026550,0.00024611,-0.075
 82472,-0.07844546,-0.04820239,-0.00008845,-0.00005041,0.00000753,0.000
 00547,-0.00000911,-0.00000007,-0.00000439,-0.00000279,0.00001256,0.000
 14117,0.00026361,-0.00013357,-0.00004564,-0.00001088,-0.00002625,0.049
 14894,0.05948497,0.04049536,-0.00000923,0.00019987,-0.00024425,-0.0003
 8957,0.00045918,0.00012370,0.00084827,0.00047536,0.00011152,-0.0004859
 7,0.00012576,-0.00000791,0.00055514,0.00009296,0.00011000,-0.00057284,
 -0.00045605,-0.00017265,0.00000400,0.00003061,0.00007452,-0.00006779,-
 0.00084353,0.00013584,-0.00189528,0.00081765,0.00030052,0.00000670,0.0
 0000119,-0.00000998,0.00042586,0.00005662,0.00003540,-0.00000423,0.000
 02733,0.00003110,0.00000658,-0.00002479,0.00000426,0.00000865,-0.00001
 071,-0.00001171,-0.00000319,-0.00000272,0.00000291,0.00001357,-0.00001
 210,-0.00000449,-0.00005370,-0.00010226,0.00004925,-0.25429294,0.05102
 311,0.22036295,0.00004382,0.00001547,-0.00001121,-0.00000377,0.0000115
 4,0.00000373,-0.00000133,-0.00000050,0.00000345,0.00006103,0.00007444,
 -0.00002912,-0.00000931,-0.00000384,-0.00000316,-0.02210922,0.01178430
 ,0.02759508,0.27794545,0.00033934,0.00012454,-0.00000087,-0.00070157,0
 .00045708,-0.00001875,0.00199038,-0.00196114,0.00056265,-0.00021194,0.
 00069271,0.00013838,0.00071680,0.00000719,-0.00000933,-0.00055371,-0.0
 0061000,-0.00014218,-0.00004097,0.00001608,0.00001114,-0.00087046,-0.0
 0097047,-0.00017071,-0.00107062,0.00193899,-0.00162193,-0.00004240,-0.
 00000804,0.00001696,0.00022860,0.00012362,0.00004491,0.00004797,0.0000
 5593,-0.00002102,0.00001370,-0.00002809,0.00000924,0.00001946,-0.00004
 047,-0.00001340,-0.00000490,-0.00000574,-0.00000084,0.00001104,0.00000
 651,0.00000074,0.00000974,-0.00001107,0.00005228,0.08340914,-0.0510055
 9,-0.11034390,0.00000862,0.00000133,-0.00000760,-0.00000308,0.00000311
 ,0.00000184,-0.00000016,0.00000017,-0.00000027,0.00001616,0.00002176,-
 0.00002679,-0.00000106,-0.00000620,0.00000085,-0.01958591,0.00515485,0
 .01916340,-0.06372107,0.04604624,0.00016426,-0.00045330,0.00008944,0.0
 0172003,-0.00070184,0.00050085,-0.00210012,0.00129042,-0.00002225,0.00
 043045,-0.00011896,-0.00004778,-0.00080672,-0.00047903,-0.00012509,0.0
 0069759,0.00111261,0.00001148,0.00013873,0.00008863,-0.00005600,-0.000
 06285,0.00059874,-0.00032724,0.00088061,-0.00155812,-0.00010432,0.0000
 3151,0.00000519,0.00001340,-0.00082137,-0.00000311,0.00006104,0.000008
 07,-0.00003718,-0.00001901,-0.00002610,0.00001597,-0.00000082,-0.00001
 282,0.00001525,0.00000042,0.00000125,0.00002630,0.00000259,-0.00003942
 ,-0.00005575,-0.00001633,0.00002459,0.00013113,-0.00004721,0.25868086,
 -0.09094778,-0.26924093,0.00024728,0.00012185,-0.00005555,0.00000838,0
 .00003328,-0.00000105,-0.00000422,0.00000311,0.00000825,-0.00006115,-0
 .00009773,0.00003203,0.00004548,0.00000635,0.00000983,-0.01055328,-0.0
 0127623,0.00433284,-0.24845505,0.09237164,0.26497432,-0.00101471,0.000
 81334,0.00034212,-0.00201002,0.00299489,0.00016286,0.00007018,-0.00008
 724,0.00008337,-0.00016053,-0.00110957,-0.00028797,-0.00315228,-0.0014
 7474,-0.00074120,0.00888041,-0.00378446,0.00050317,0.00150704,0.001014
 16,-0.00011644,0.00152820,-0.00151732,-0.00017506,0.00040708,-0.000055
 73,0.00001182,0.00004729,-0.00011615,0.00002845,-0.01936537,-0.0085243
 5,0.00342905,-0.00012854,0.00042108,0.00006732,0.00013551,-0.00011729,
 0.00006436,0.00011163,-0.00012425,-0.00006804,-0.00007848,-0.00004611,
 -0.00000818,-0.00993369,0.01447541,0.00802071,0.00007540,-0.00058367,0
 .00026929,-0.00067584,0.00015806,0.00011145,-0.20298568,-0.21800775,0.
 00309945,-0.00241325,-0.00958403,-0.00416550,-0.00181470,0.00101008,-0
 .00058786,-0.00058307,0.00082156,-0.00061377,0.00083844,-0.00091752,0.
 00089557,0.00074480,-0.00032082,0.00005649,-0.00001824,-0.00000138,-0.
 00013257,0.33548489,-0.00036043,0.00241828,0.00035255,-0.00189201,0.00
 230103,0.00018506,0.00006773,0.00013440,-0.00000159,0.00023150,-0.0011
 6119,-0.00024438,-0.00293306,-0.00074562,-0.00051660,0.00754587,-0.005
 30498,0.00058507,-0.00140933,-0.00166499,-0.00026622,0.00122559,-0.001
 07574,-0.00014444,0.00029934,0.00000282,0.00001834,0.00001454,-0.00008
 010,0.00004108,-0.01891204,-0.00257256,0.00299072,-0.00004094,0.000321
 04,0.00006068,0.00008714,-0.00006844,0.00003481,0.00008145,-0.00006758
 ,-0.00004171,-0.00005859,-0.00001821,-0.00000517,0.01533103,-0.0104801
 0,-0.00955484,-0.00031233,-0.00043856,0.00014727,-0.00044996,0.0001019
 8,0.00006592,-0.20004934,-0.25656302,-0.02171070,-0.00760875,0.0011008
 8,0.00951122,0.00199526,-0.00070703,0.00062774,0.00101056,-0.00020925,
 0.00038367,-0.00116892,0.00094266,-0.00097273,0.00049550,-0.00021204,0
 .00003520,-0.00001517,-0.00000212,-0.00008225,0.22025729,0.30836686,0.
 00035932,-0.00005901,0.00008606,0.00096977,-0.00111451,-0.00016182,-0.
 00039022,0.00013868,0.00005435,0.00054785,0.00009364,-0.00008978,0.000
 33987,0.00037354,-0.00018274,-0.00140578,0.00094283,0.00055197,-0.0007
 3879,-0.00061864,-0.00020464,-0.00062711,0.00075081,0.00010588,-0.0000
 7929,-0.00000567,0.00000771,-0.00002369,0.00003298,0.00002978,0.005137
 72,0.00268656,0.00243502,0.00003400,-0.00011391,-0.00001706,-0.0000157
 7,0.00005744,-0.00001229,-0.00005083,0.00003352,0.00003599,0.00002138,
 0.00000795,0.00000045,0.00974322,-0.00927734,0.00026158,-0.00005705,0.
 00018484,-0.00011745,0.00021730,-0.00003720,-0.00003142,0.03115871,0.0
 1282177,-0.04496971,-0.00323097,0.00681010,-0.00559739,-0.00021659,0.0
 0031696,0.00058585,0.00044263,-0.00039785,0.00039270,-0.00057757,0.000
 52407,-0.00061467,-0.00026386,0.00010112,-0.00001181,0.00000905,0.0000
 0479,0.00004147,-0.22163016,0.03767496,0.48417233,0.00003874,0.0000874
 2,-0.00000640,-0.00021821,0.00013698,0.00003957,0.00014672,-0.00005934
 ,-0.00001924,-0.00019415,0.00006950,0.00002020,0.00011981,0.00002040,0
 .00004006,-0.00009879,-0.00025453,-0.00008419,0.00000795,-0.00001706,0
 .00004518,0.00011254,-0.00012036,-0.00003023,-0.00000567,0.00000872,0.
 00000046,0.00000309,-0.00000203,-0.00000387,-0.00055608,-0.00084869,-0
 .00045740,0.00000525,0.00001032,0.00000746,-0.00000129,-0.00000595,-0.
 00000157,0.00000540,-0.00000295,-0.00000547,-0.00000183,0.00000098,0.0
 0000029,-0.00021710,0.00083276,-0.00015636,-0.00001365,-0.00002336,0.0
 0001719,-0.00001824,-0.00000128,0.00000204,-0.01065075,0.00531900,0.02
 780936,-0.00139837,-0.00031095,0.00167552,0.00001742,0.00009269,0.0000
 1941,0.00000296,0.00000161,-0.00002849,0.00000633,0.00002086,0.0000282
 3,0.00003137,-0.00000749,0.00000059,-0.00000245,-0.00000171,-0.0000034
 2,-0.10549646,-0.01343194,0.18032687,0.11837547,0.00004483,0.00020267,
 0.00005029,-0.00033167,0.00033755,-0.00000431,0.00013507,-0.00005004,0
 .00000339,-0.00013397,-0.00003454,0.00002733,-0.00011803,-0.00005800,-
 0.00003597,0.00042799,-0.00044440,-0.00010246,-0.00023783,-0.00019715,
 -0.00005706,0.00019002,-0.00018657,-0.00001407,0.00001612,0.00001071,0
 .00000054,0.00000840,-0.00000816,-0.00000636,-0.00178121,-0.00089594,-
 0.00025715,0.00000020,0.00003254,0.00001023,0.00000431,-0.00001155,0.0
 0000548,0.00000812,-0.00000820,-0.00000995,-0.00000403,0.00000279,0.00
 000021,0.00318451,-0.00286729,-0.00020696,-0.00004348,-0.00005893,0.00
 002153,-0.00005037,0.00000412,0.00000693,-0.01177066,0.00394480,0.0312
 2816,-0.00239160,0.00422841,-0.00227773,-0.00008993,0.00010337,0.00015
 675,0.00017958,-0.00005708,0.00009037,-0.00020078,0.00018496,-0.000198
 73,0.00006414,-0.00002222,0.00000310,-0.00000265,-0.00000117,-0.000009
 22,0.00440652,-0.03431841,-0.05193242,0.00848640,0.03016772,-0.0000906
 3,0.00005235,-0.00000158,-0.00030186,0.00038181,0.00004402,0.00008608,
 -0.00005774,0.00000504,-0.00010327,-0.00003158,-0.00002110,-0.00018675
 ,-0.00020945,-0.00007509,0.00069635,0.00001899,0.00005295,0.00017178,0
 .00005789,-0.00001485,0.00021374,-0.00021861,-0.00003010,0.00003411,-0
 .00000048,0.00000055,0.00001608,-0.00001839,0.00000392,-0.00143790,-0.
 00080723,0.00030836,-0.00000771,0.00003665,0.00000933,0.00001305,-0.00
 001478,0.00000687,0.00001218,-0.00001537,-0.00001040,-0.00000675,-0.00
 000118,0.00000027,-0.00139294,0.00129867,0.00081939,-0.00000421,-0.000
 07330,0.00003555,-0.00007837,0.00001305,0.00001121,-0.00135817,-0.0027
 2166,-0.00324394,0.00153773,-0.00207230,-0.00137663,-0.00007633,0.0000
 6703,0.00002233,-0.00002450,0.00007422,-0.00005253,0.00005204,-0.00005
 590,0.00005061,0.00009454,-0.00003585,0.00000678,-0.00000375,-0.000001
 24,-0.00001435,0.21138127,-0.01917367,-0.43675037,-0.20923580,0.023508
 07,0.44021377\\0.05211870,0.01531566,0.00446765,0.02131451,-0.12340407
 ,-0.00885252,-0.02396813,-0.02572873,-0.00404004,-0.02566111,0.0242636
 0,0.00083119,0.02367448,-0.00296698,0.00081802,-0.01799903,-0.00196319
 ,-0.00176952,0.00126897,-0.00542677,0.00051647,-0.03380294,0.11370134,
 0.00952438,0.00173597,-0.00553932,-0.00008609,-0.00159261,0.00155457,0
 .00018058,0.00502073,0.00357905,0.00092593,0.00084832,0.00220119,0.000
 19938,0.00040582,-0.00203947,0.00040420,0.00051594,-0.00191863,-0.0007
 5582,-0.00015813,-0.00055230,-0.00006500,-0.00026712,0.00146361,-0.000
 00899,0.00015933,0.00688085,-0.00462933,0.00803268,0.00051189,-0.00163
 089,0.00006999,-0.00005667,-0.00015153,-0.00016715,-0.00028303,-0.0001
 8426,0.00005618,0.00000935,-0.00000923,-0.00225638,-0.00425986,0.00242
 555,0.00223200,0.00000744,0.00034166,-0.01235686,0.00380183,-0.0003619
 3,0.00086527,0.00075779,0.00180915,-0.00005231,0.00012340,0.00012836,-
 0.00003710,-0.00003257,-0.00002739\\\@


 A MAN IS EXACTLY AS GREAT AS THE TIDE SURGING
 BENEATH HIM.      - BISMARCK
 Job cpu time:       0 days  8 hours 43 minutes 39.3 seconds.
 Elapsed time:       0 days  0 hours 10 minutes 31.0 seconds.
 File lengths (MBytes):  RWF=   1803 Int=      0 D2E=      0 Chk=     62 Scr=      1
 Normal termination of Gaussian 16 at Thu Jan  5 15:22:08 2023.
