 Entering Gaussian System, Link 0=/shared/gaussian/g16.b01/AVX2/g16/g16
 Initial command:
 /shared/gaussian/g16.b01/AVX2/g16/l1.exe "/scratch/marlene/SCRGAU.150022.Thymine6311-freq-solv-ES2/Gau-30046.inp" -scrdir="/scratch/marlene/SCRGAU.150022.Thymine6311-freq-solv-ES2/"
 Entering Link 1 = /shared/gaussian/g16.b01/AVX2/g16/l1.exe PID=     30047.
  
 Copyright (c) 1988-2017, Gaussian, Inc.  All Rights Reserved.
  
 This is part of the Gaussian(R) 16 program.  It is based on
 the Gaussian(R) 09 system (copyright 2009, Gaussian, Inc.),
 the Gaussian(R) 03 system (copyright 2003, Gaussian, Inc.),
 the Gaussian(R) 98 system (copyright 1998, Gaussian, Inc.),
 the Gaussian(R) 94 system (copyright 1995, Gaussian, Inc.),
 the Gaussian 92(TM) system (copyright 1992, Gaussian, Inc.),
 the Gaussian 90(TM) system (copyright 1990, Gaussian, Inc.),
 the Gaussian 88(TM) system (copyright 1988, Gaussian, Inc.),
 the Gaussian 86(TM) system (copyright 1986, Carnegie Mellon
 University), and the Gaussian 82(TM) system (copyright 1983,
 Carnegie Mellon University). Gaussian is a federally registered
 trademark of Gaussian, Inc.
  
 This software contains proprietary and confidential information,
 including trade secrets, belonging to Gaussian, Inc.
  
 This software is provided under written license and may be
 used, copied, transmitted, or stored only in accord with that
 written license.
  
 The following legend is applicable only to US Government
 contracts under FAR:
  
                    RESTRICTED RIGHTS LEGEND
  
 Use, reproduction and disclosure by the US Government is
 subject to restrictions as set forth in subparagraphs (a)
 and (c) of the Commercial Computer Software - Restricted
 Rights clause in FAR 52.227-19.
  
 Gaussian, Inc.
 340 Quinnipiac St., Bldg. 40, Wallingford CT 06492
  
  
 ---------------------------------------------------------------
 Warning -- This program may not be used in any manner that
 competes with the business of Gaussian, Inc. or will provide
 assistance to any competitor of Gaussian, Inc.  The licensee
 of this program is prohibited from giving any competitor of
 Gaussian, Inc. access to this program.  By using this program,
 the user acknowledges that Gaussian, Inc. is engaged in the
 business of creating and licensing software in the field of
 computational chemistry and represents and warrants to the
 licensee that it is not a competitor of Gaussian, Inc. and that
 it will not use this program in any manner prohibited above.
 ---------------------------------------------------------------
  

 Cite this work as:
 Gaussian 16, Revision B.01,
 M. J. Frisch, G. W. Trucks, H. B. Schlegel, G. E. Scuseria, 
 M. A. Robb, J. R. Cheeseman, G. Scalmani, V. Barone, 
 G. A. Petersson, H. Nakatsuji, X. Li, M. Caricato, A. V. Marenich, 
 J. Bloino, B. G. Janesko, R. Gomperts, B. Mennucci, H. P. Hratchian, 
 J. V. Ortiz, A. F. Izmaylov, J. L. Sonnenberg, D. Williams-Young, 
 F. Ding, F. Lipparini, F. Egidi, J. Goings, B. Peng, A. Petrone, 
 T. Henderson, D. Ranasinghe, V. G. Zakrzewski, J. Gao, N. Rega, 
 G. Zheng, W. Liang, M. Hada, M. Ehara, K. Toyota, R. Fukuda, 
 J. Hasegawa, M. Ishida, T. Nakajima, Y. Honda, O. Kitao, H. Nakai, 
 T. Vreven, K. Throssell, J. A. Montgomery, Jr., J. E. Peralta, 
 F. Ogliaro, M. J. Bearpark, J. J. Heyd, E. N. Brothers, K. N. Kudin, 
 V. N. Staroverov, T. A. Keith, R. Kobayashi, J. Normand, 
 K. Raghavachari, A. P. Rendell, J. C. Burant, S. S. Iyengar, 
 J. Tomasi, M. Cossi, J. M. Millam, M. Klene, C. Adamo, R. Cammi, 
 J. W. Ochterski, R. L. Martin, K. Morokuma, O. Farkas, 
 J. B. Foresman, and D. J. Fox, Gaussian, Inc., Wallingford CT, 2016.
 
 ******************************************
 Gaussian 16:  ES64L-G16RevB.01 20-Dec-2017
                 5-Jan-2023 
 ******************************************
 %nprocshared=50
 Will use up to   50 processors via shared memory.
 %mem=10GB
 %chk=Thymine6311-freq-solv-ES2.chk
 ----------------------------------------------------------------------
 #p freq td=(nstates=10,root=2) cam-b3lyp/6-311+g(d,p) scrf=(solvent=wa
 ter,pcm) symm=loose
 ----------------------------------------------------------------------
 1/10=4,30=1,38=1/1,3;
 2/12=2,17=4,18=3,40=1/2;
 3/5=4,6=6,7=111,11=9,25=1,30=1,70=2201,71=2,72=1,74=-40,140=1/1,2,3,8;
 4//1;
 5/5=2,38=5,53=1,98=1/2;
 8/6=1,10=2,107=2,108=10/1;
 9/8=2,15=3,41=10,42=1,70=2/14;
 10/5=2004,20=4,28=2/2;
 11/6=1,8=1,12=-2,16=1,42=3/1,2,10;
 10/6=3,21=1,28=2/2,14;
 6/7=2,8=2,9=2,10=2/1;
 7/8=1,10=1,12=6,13=8,14=2,25=1,44=2/1,2,3,16;
 1/10=4,30=1/3;
 99//99;
 Leave Link    1 at Thu Jan  5 15:00:22 2023, MaxMem=  1342177280 cpu:               2.5 elap:               0.1
 (Enter /shared/gaussian/g16.b01/AVX2/g16/l101.exe)
 --------------------
 Thymine solvated ES2
 --------------------
 Symbolic Z-matrix:
 Charge =  0 Multiplicity = 1
 N                    -0.23117  -0.03514  -0.18765 
 C                     1.09637  -0.362    -0.13809 
 N                     1.94349   0.69304   0.00033 
 C                     1.50712   1.98844   0.09405 
 C                     0.20304   2.31854   0.06272 
 C                    -0.75796   1.242    -0.07949 
 H                    -0.88878  -0.81343  -0.33326 
 O                     1.49365  -1.52662  -0.21212 
 H                     2.93788   0.46073   0.03201 
 H                     2.28981   2.72781   0.1993 
 O                    -1.97581   1.4124   -0.10838 
 C                    -0.29892   3.72357   0.17089 
 H                    -0.87752   4.00063  -0.71272 
 H                    -0.95505   3.8378    1.03618 
 H                     0.53193   4.42132   0.27266 
 O                    -2.15696  -2.18939  -0.54554 
 H                     0.53502  -3.05163   0.41374 
 O                     4.21976  -1.0042    0.05234 
 H                    -3.35011   0.32965   0.14121 
 H                    -2.95662  -1.6966   -0.24879 
 H                    -2.33746  -2.49334  -1.44134 
 O                    -0.11605  -3.71234   0.69918 
 H                    -0.9538   -3.34536   0.37493 
 H                     3.43773  -1.55482  -0.12499 
 H                     4.87117  -1.22696  -0.61977 
 O                    -4.00852  -0.39484   0.18979 
 H                    -4.41687  -0.34438   1.0594 
 
 ITRead=  0  0  0  0  0  0  0  0  0  0  0  0  0  0  0  0  0  0  0  0
 ITRead=  0  0  0  0  0  0  0
 MicOpt= -1 -1 -1 -1 -1 -1 -1 -1 -1 -1 -1 -1 -1 -1 -1 -1 -1 -1 -1 -1
 MicOpt= -1 -1 -1 -1 -1 -1 -1
 NAtoms=     27 NQM=       27 NQMF=       0 NMMI=      0 NMMIF=      0
                NMic=       0 NMicF=      0.
                    Isotopes and Nuclear Properties:
 (Nuclear quadrupole moments (NQMom) in fm**2, nuclear magnetic moments (NMagM)
  in nuclear magnetons)

  Atom         1           2           3           4           5           6           7           8           9          10
 IAtWgt=          14          12          14          12          12          12           1          16           1           1
 AtmWgt=  14.0030740  12.0000000  14.0030740  12.0000000  12.0000000  12.0000000   1.0078250  15.9949146   1.0078250   1.0078250
 NucSpn=           2           0           2           0           0           0           1           0           1           1
 AtZEff=  -0.0000000  -0.0000000  -0.0000000  -0.0000000  -0.0000000  -0.0000000  -0.0000000  -0.0000000  -0.0000000  -0.0000000
 NQMom=    2.0440000   0.0000000   2.0440000   0.0000000   0.0000000   0.0000000   0.0000000   0.0000000   0.0000000   0.0000000
 NMagM=    0.4037610   0.0000000   0.4037610   0.0000000   0.0000000   0.0000000   2.7928460   0.0000000   2.7928460   2.7928460
 AtZNuc=   7.0000000   6.0000000   7.0000000   6.0000000   6.0000000   6.0000000   1.0000000   8.0000000   1.0000000   1.0000000

  Atom        11          12          13          14          15          16          17          18          19          20
 IAtWgt=          16          12           1           1           1          16           1          16           1           1
 AtmWgt=  15.9949146  12.0000000   1.0078250   1.0078250   1.0078250  15.9949146   1.0078250  15.9949146   1.0078250   1.0078250
 NucSpn=           0           0           1           1           1           0           1           0           1           1
 AtZEff=  -0.0000000  -0.0000000  -0.0000000  -0.0000000  -0.0000000  -0.0000000  -0.0000000  -0.0000000  -0.0000000  -0.0000000
 NQMom=    0.0000000   0.0000000   0.0000000   0.0000000   0.0000000   0.0000000   0.0000000   0.0000000   0.0000000   0.0000000
 NMagM=    0.0000000   0.0000000   2.7928460   2.7928460   2.7928460   0.0000000   2.7928460   0.0000000   2.7928460   2.7928460
 AtZNuc=   8.0000000   6.0000000   1.0000000   1.0000000   1.0000000   8.0000000   1.0000000   8.0000000   1.0000000   1.0000000

  Atom        21          22          23          24          25          26          27
 IAtWgt=           1          16           1           1           1          16           1
 AtmWgt=   1.0078250  15.9949146   1.0078250   1.0078250   1.0078250  15.9949146   1.0078250
 NucSpn=           1           0           1           1           1           0           1
 AtZEff=  -0.0000000  -0.0000000  -0.0000000  -0.0000000  -0.0000000  -0.0000000  -0.0000000
 NQMom=    0.0000000   0.0000000   0.0000000   0.0000000   0.0000000   0.0000000   0.0000000
 NMagM=    2.7928460   0.0000000   2.7928460   2.7928460   2.7928460   0.0000000   2.7928460
 AtZNuc=   1.0000000   8.0000000   1.0000000   1.0000000   1.0000000   8.0000000   1.0000000
 Leave Link  101 at Thu Jan  5 15:00:22 2023, MaxMem=  1342177280 cpu:               6.0 elap:               0.1
 (Enter /shared/gaussian/g16.b01/AVX2/g16/l103.exe)

 GradGradGradGradGradGradGradGradGradGradGradGradGradGradGradGradGradGrad
 Berny optimization.
 Initialization pass.
 Trust Radius=3.00D-01 FncErr=1.00D-07 GrdErr=1.00D-07 EigMax=2.50D+02 EigMin=1.00D-04
 Number of steps in this run=      2 maximum allowed number of steps=      2.
 GradGradGradGradGradGradGradGradGradGradGradGradGradGradGradGradGradGrad

 Leave Link  103 at Thu Jan  5 15:00:22 2023, MaxMem=  1342177280 cpu:               1.0 elap:               0.0
 (Enter /shared/gaussian/g16.b01/AVX2/g16/l202.exe)
                          Input orientation:                          
 ---------------------------------------------------------------------
 Center     Atomic      Atomic             Coordinates (Angstroms)
 Number     Number       Type             X           Y           Z
 ---------------------------------------------------------------------
      1          7           0       -0.231165   -0.035141   -0.187654
      2          6           0        1.096368   -0.361997   -0.138091
      3          7           0        1.943485    0.693041    0.000329
      4          6           0        1.507124    1.988439    0.094046
      5          6           0        0.203040    2.318540    0.062719
      6          6           0       -0.757961    1.241995   -0.079486
      7          1           0       -0.888783   -0.813428   -0.333259
      8          8           0        1.493654   -1.526624   -0.212117
      9          1           0        2.937877    0.460730    0.032007
     10          1           0        2.289814    2.727806    0.199297
     11          8           0       -1.975809    1.412395   -0.108376
     12          6           0       -0.298918    3.723573    0.170889
     13          1           0       -0.877521    4.000626   -0.712721
     14          1           0       -0.955053    3.837803    1.036180
     15          1           0        0.531929    4.421320    0.272664
     16          8           0       -2.156963   -2.189392   -0.545540
     17          1           0        0.535018   -3.051632    0.413739
     18          8           0        4.219759   -1.004202    0.052340
     19          1           0       -3.350109    0.329652    0.141206
     20          1           0       -2.956623   -1.696599   -0.248786
     21          1           0       -2.337462   -2.493339   -1.441344
     22          8           0       -0.116054   -3.712336    0.699184
     23          1           0       -0.953795   -3.345363    0.374927
     24          1           0        3.437732   -1.554817   -0.124989
     25          1           0        4.871171   -1.226960   -0.619765
     26          8           0       -4.008523   -0.394843    0.189792
     27          1           0       -4.416871   -0.344381    1.059404
 ---------------------------------------------------------------------
                    Distance matrix (angstroms):
                    1          2          3          4          5
     1  N    0.000000
     2  C    1.368077   0.000000
     3  N    2.301019   1.360100   0.000000
     4  C    2.682514   2.397323   1.370128   0.000000
     5  C    2.406457   2.832603   2.382286   1.345579   0.000000
     6  C    1.385746   2.452501   2.757813   2.391214   1.450067
     7  H    1.029268   2.045166   3.225286   3.711256   3.340374
     8  O    2.280377   1.232750   2.274729   3.528397   4.065280
     9  H    3.215115   2.024097   1.021659   2.093991   3.306317
    10  H    3.760178   3.329418   2.073596   1.081825   2.130910
    11  O    2.268354   3.547904   3.986245   3.536046   2.365958
    12  C    3.776384   4.328299   3.773803   2.505670   1.495921
    13  H    4.120787   4.822750   4.405296   3.222779   2.144372
    14  H    4.125709   4.819290   4.400459   3.220261   2.144054
    15  H    4.544695   4.833987   3.995838   2.627131   2.138674
    16  O    2.911628   3.753605   5.041832   5.593646   5.124553
    17  H    3.169847   2.802457   4.022097   5.142909   5.391862
    18  O    4.561513   3.194411   2.839853   4.039310   5.212941
    19  H    3.157378   4.508608   5.307922   5.132885   4.072678
    20  H    3.192538   4.268507   5.457426   5.798455   5.118774
    21  H    3.471450   4.246443   5.527924   6.101196   5.645399
    22  O    3.784375   3.660023   4.912987   5.958165   6.072757
    23  H    3.434569   3.656067   4.984302   5.880855   5.789261
    24  H    3.971668   2.627732   2.702100   4.041025   5.049887
    25  H    5.257469   3.902475   3.555596   4.707986   5.901508
    26  O    3.813172   5.115515   6.053576   6.009290   5.011572
    27  H    4.378461   5.641818   6.530851   6.439541   5.424768
                    6          7          8          9         10
     6  C    0.000000
     7  H    2.075158   0.000000
     8  O    3.571080   2.489845   0.000000
     9  H    3.779157   4.049719   2.468796   0.000000
    10  H    3.402100   4.788260   4.347793   2.363812   0.000000
    11  O    1.230051   2.487265   4.548161   5.006964   4.474428
    12  C    2.536067   4.602878   5.560987   4.598073   2.773787
    13  H    2.832901   4.828999   6.035194   5.257637   3.533250
    14  H    2.832274   4.849093   6.027561   5.250513   3.530103
    15  H    3.449048   5.457852   6.044664   4.640342   2.442034
    16  O    3.734813   1.883247   3.725243   5.771837   6.671390
    17  H    4.511131   2.755861   1.906916   4.272720   6.043773
    18  O    5.462644   5.126625   2.788281   1.946705   4.204066
    19  H    2.756865   2.754973   5.199292   6.290300   6.128886
    20  H    3.673978   2.250131   4.453673   6.283156   6.877590
    21  H    4.278107   2.479642   4.137993   6.223061   7.166850
    22  O    5.056062   3.172809   2.863384   5.214029   6.893005
    23  H    4.613967   2.629914   3.105228   5.454269   6.887324
    24  H    5.042625   4.394515   1.946234   2.082530   4.445642
    25  H    6.170475   5.781882   3.415201   2.647778   4.793166
    26  O    3.649370   3.190858   5.631732   7.000670   7.029941
    27  H    4.147443   3.821900   6.160257   7.469676   7.426826
                   11         12         13         14         15
    11  O    0.000000
    12  C    2.869058   0.000000
    13  H    2.875832   1.091928   0.000000
    14  H    2.869591   1.091920   1.758174   0.000000
    15  H    3.935425   1.089732   1.770457   1.770470   0.000000
    16  O    3.632740   6.239291   6.323072   6.346141   7.183391
    17  H    5.148242   6.830654   7.280008   7.076161   7.474284
    18  O    6.652130   6.540975   7.184420   7.154833   6.563911
    19  H    1.767293   4.563918   4.507653   4.341013   5.641742
    20  H    3.263059   6.051263   6.082456   6.023871   7.061929
    21  H    4.142747   6.738320   6.695812   6.937762   7.680087
    22  O    5.511235   7.456895   7.878013   7.604083   8.170567
    23  H    4.890231   7.102137   7.426463   7.213538   7.908173
    24  H    6.173415   6.473909   7.059021   7.051611   6.657029
    25  H    7.355872   7.201578   7.770699   7.895496   7.178337
    26  O    2.736227   5.542822   5.471549   5.287281   6.619516
    27  H    3.226260   5.856214   5.877628   5.429124   6.915308
                   16         17         18         19         20
    16  O    0.000000
    17  H    2.985035   0.000000
    18  O    6.513426   4.230827   0.000000
    19  H    2.870679   5.157671   7.687000   0.000000
    20  H    0.985071   3.803500   7.215993   2.100623   0.000000
    21  H    0.963031   3.464703   6.888089   3.391047   1.562162
    22  O    2.834432   0.970517   5.152831   5.206546   3.609803
    23  H    1.905555   1.518008   5.687773   4.393482   2.668101
    24  H    5.646252   3.310050   0.972722   7.049601   6.397125
    25  H    7.094114   4.816615   0.962125   8.401879   7.850640
    26  O    2.681304   5.268059   8.251960   0.980185   1.730148
    27  H    3.329729   5.680431   8.720144   1.560573   2.381634
                   21         22         23         24         25
    21  H    0.000000
    22  O    3.316997   0.000000
    23  H    2.437072   0.970372   0.000000
    24  H    5.997206   4.238342   4.768803   0.000000
    25  H    7.364991   5.726180   6.277521   1.551464   0.000000
    26  O    3.139544   5.139704   4.251024   7.542635   8.955265
    27  H    3.898167   5.474478   4.633281   8.035094   9.479783
                   26         27
    26  O    0.000000
    27  H    0.962039   0.000000
 Stoichiometry    C5H14N2O6
 Framework group  C1[X(C5H14N2O6)]
 Deg. of freedom    75
 Full point group                 C1      NOp   1
 Largest Abelian subgroup         C1      NOp   1
 Largest concise Abelian subgroup C1      NOp   1
                         Standard orientation:                         
 ---------------------------------------------------------------------
 Center     Atomic      Atomic             Coordinates (Angstroms)
 Number     Number       Type             X           Y           Z
 ---------------------------------------------------------------------
      1          7           0       -0.231165   -0.035141   -0.187654
      2          6           0        1.096368   -0.361997   -0.138091
      3          7           0        1.943485    0.693041    0.000329
      4          6           0        1.507124    1.988439    0.094046
      5          6           0        0.203040    2.318540    0.062719
      6          6           0       -0.757961    1.241995   -0.079486
      7          1           0       -0.888783   -0.813428   -0.333259
      8          8           0        1.493654   -1.526624   -0.212117
      9          1           0        2.937877    0.460731    0.032007
     10          1           0        2.289814    2.727806    0.199297
     11          8           0       -1.975809    1.412395   -0.108376
     12          6           0       -0.298919    3.723573    0.170889
     13          1           0       -0.877522    4.000626   -0.712721
     14          1           0       -0.955054    3.837803    1.036180
     15          1           0        0.531928    4.421320    0.272664
     16          8           0       -2.156963   -2.189392   -0.545540
     17          1           0        0.535019   -3.051632    0.413739
     18          8           0        4.219759   -1.004201    0.052340
     19          1           0       -3.350109    0.329651    0.141206
     20          1           0       -2.956623   -1.696600   -0.248786
     21          1           0       -2.337461   -2.493339   -1.441344
     22          8           0       -0.116053   -3.712336    0.699184
     23          1           0       -0.953794   -3.345363    0.374927
     24          1           0        3.437732   -1.554816   -0.124989
     25          1           0        4.871171   -1.226959   -0.619765
     26          8           0       -4.008523   -0.394844    0.189792
     27          1           0       -4.416871   -0.344382    1.059404
 ---------------------------------------------------------------------
 Rotational constants (GHZ):           0.6284335           0.5383142           0.2971763
 Leave Link  202 at Thu Jan  5 15:00:22 2023, MaxMem=  1342177280 cpu:               0.4 elap:               0.0
 (Enter /shared/gaussian/g16.b01/AVX2/g16/l301.exe)
 Standard basis: 6-311+G(d,p) (5D, 7F)
 Ernie: Thresh=  0.10000D-02 Tol=  0.10000D-05 Strict=F.
 There are   383 symmetry adapted cartesian basis functions of A   symmetry.
 There are   370 symmetry adapted basis functions of A   symmetry.
   370 basis functions,   580 primitive gaussians,   383 cartesian basis functions
    53 alpha electrons       53 beta electrons
       nuclear repulsion energy       873.8248456000 Hartrees.
 IExCor=20419 DFT=T Ex+Corr=CAM-B3LYP ExCW=0 ScaHFX=  1.000000
 ScaDFX=  1.000000  1.000000  1.000000  0.810000 ScalE2=  1.000000  1.000000
 IRadAn=      5 IRanWt=     -1 IRanGd=            0 ICorTp=0 IEmpDi=  4
 HFx  wShort=  0.000000 wLong=  0.330000 cFull=  0.190000 cShort=  0.000000 cLong=  0.460000
 DFx  wShort=  0.000000 wLong=  0.330000 cFull=  0.190000 cShort=  0.000000 cLong=  0.460000
 NAtoms=   27 NActive=   27 NUniq=   27 SFac= 1.00D+00 NAtFMM=   60 NAOKFM=F Big=F
 Integral buffers will be    131072 words long.
 Raffenetti 1 integral format.
 Two-electron integral symmetry is turned on.
 Force inversion solution in PCM.
 ------------------------------------------------------------------------------
 Polarizable Continuum Model (PCM)
 =================================
 Model                : PCM.
 Atomic radii         : UFF (Universal Force Field).
 Polarization charges : Total charges.
 Charge compensation  : None.
 Solution method      : Matrix inversion.
 Cavity type          : Scaled VdW (van der Waals Surface) (Alpha=1.100).
 Cavity algorithm     : GePol (No added spheres)
                        Default sphere list used, NSphG=   27.
                        Lebedev-Laikov grids with approx.  5.0 points / Ang**2.
                        Smoothing algorithm: York/Karplus (Gamma=1.0000).
                        Polarization charges: spherical gaussians, with
                                              point-specific exponents (IZeta= 3).
                        Self-potential: point-specific (ISelfS= 7).
                        Self-field    : sphere-specific E.n sum rule (ISelfD= 2).
 1st derivatives      : Analytical E(r).r(x)/FMM algorithm (CHGder, D1EAlg=3).
                        Cavity 1st derivative terms included.
 2nd derivatives      : Analytical E(r).r(xy)/FMM algorithm (CHGder, D2EAlg=3).
                        Cavity 2nd derivative terms included.
 Solvent              : Water, Eps=  78.355300 Eps(inf)=   1.777849
 ------------------------------------------------------------------------------
 GePol: Number of generator spheres                  =      27
 GePol: Total number of spheres                      =      27
 GePol: Number of exposed spheres                    =      27 (100.00%)
 GePol: Number of points                             =    2281
 GePol: Average weight of points                     =       0.12
 GePol: Minimum weight of points                     =   0.27D-09
 GePol: Maximum weight of points                     =    0.20577
 GePol: Number of points with low weight             =     148
 GePol: Fraction of low-weight points (<1% of avg)   =       6.49%
 GePol: Cavity surface area                          =    280.953 Ang**2
 GePol: Cavity volume                                =    278.556 Ang**3
 Leave Link  301 at Thu Jan  5 15:00:22 2023, MaxMem=  1342177280 cpu:               3.2 elap:               0.1
 (Enter /shared/gaussian/g16.b01/AVX2/g16/l302.exe)
 NPDir=0 NMtPBC=     1 NCelOv=     1 NCel=       1 NClECP=     1 NCelD=      1
         NCelK=      1 NCelE2=     1 NClLst=     1 CellRange=     0.0.
 One-electron integrals computed using PRISM.
 One-electron integral symmetry used in STVInt
 NBasis=   370 RedAO= T EigKep=  5.61D-06  NBF=   370
 NBsUse=   370 1.00D-06 EigRej= -1.00D+00 NBFU=   370
 Precomputing XC quadrature grid using
 IXCGrd= 4 IRadAn=           5 IRanWt=          -1 IRanGd=           0 AccXCQ= 0.00D+00.
 Generated NRdTot=       0 NPtTot=           0 NUsed=           0 NTot=          32
 NSgBfM=   381   381   381   381   381 MxSgAt=    27 MxSgA2=    27.
 Leave Link  302 at Thu Jan  5 15:00:23 2023, MaxMem=  1342177280 cpu:              18.2 elap:               0.4
 (Enter /shared/gaussian/g16.b01/AVX2/g16/l303.exe)
 DipDrv:  MaxL=1.
 Leave Link  303 at Thu Jan  5 15:00:23 2023, MaxMem=  1342177280 cpu:               2.5 elap:               0.1
 (Enter /shared/gaussian/g16.b01/AVX2/g16/l308.exe)
 Leave Link  308 at Thu Jan  5 15:00:23 2023, MaxMem=  1342177280 cpu:               3.0 elap:               0.1
 (Enter /shared/gaussian/g16.b01/AVX2/g16/l401.exe)
 ExpMin= 4.38D-02 ExpMax= 8.59D+03 ExpMxC= 1.30D+03 IAcc=3 IRadAn=         5 AccDes= 0.00D+00
 Harris functional with IExCor=20419 and IRadAn=       5 diagonalized for initial guess.
 HarFok:  IExCor=20419 AccDes= 0.00D+00 IRadAn=         5 IDoV= 1 UseB2=F ITyADJ=14
 ICtDFT=  3500011 ScaDFX=  1.000000  1.000000  1.000000  1.000000
 FoFCou: FMM=F IPFlag=           0 FMFlag=      100000 FMFlg1=           0
         NFxFlg=           0 DoJE=T BraDBF=F KetDBF=T FulRan=T
         wScrn=  0.000000 ICntrl=       500 IOpCl=  0 I1Cent=   200000004 NGrid=           0
         NMat0=    1 NMatS0=      1 NMatT0=    0 NMatD0=    1 NMtDS0=    0 NMtDT0=    0
 Petite list used in FoFCou.
 Harris En= -733.390347824989    
 JPrj=0 DoOrth=F DoCkMO=F.
 Leave Link  401 at Thu Jan  5 15:00:24 2023, MaxMem=  1342177280 cpu:              25.7 elap:               0.6
 (Enter /shared/gaussian/g16.b01/AVX2/g16/l502.exe)
 Integral symmetry usage will be decided dynamically.
 Closed shell SCF:
 Using DIIS extrapolation, IDIIS=  1040.
 NGot=  1342177280 LenX=  1341860947 LenY=  1341713817
 Requested convergence on RMS density matrix=1.00D-08 within 128 cycles.
 Requested convergence on MAX density matrix=1.00D-06.
 Requested convergence on             energy=1.00D-06.
 No special actions if energy rises.
 Fock matrices will be formed incrementally for  20 cycles.

 Cycle   1  Pass 1  IDiag  1:
 FoFJK:  IHMeth= 1 ICntrl=       0 DoSepK=T KAlg= 0 I1Cent=           0 FoldK=F
 IRaf=         1 NMat=       1 IRICut=       1 DoRegI=T DoRafI=F ISym2E= 0 IDoP0=0 IntGTp=1.
 FoFCou: FMM=F IPFlag=           0 FMFlag=      100000 FMFlg1=           0
         NFxFlg=           0 DoJE=T BraDBF=F KetDBF=F FulRan=T
         wScrn=  0.000000 ICntrl=       500 IOpCl=  0 I1Cent=           0 NGrid=           0
         NMat0=    1 NMatS0=      1 NMatT0=    0 NMatD0=    1 NMtDS0=    0 NMtDT0=    0
 Symmetry not used in FoFCou.
 Inv3:  Mode=1 IEnd=    15608883.
 Iteration    1 A*A^-1 deviation from unit magnitude is 3.11D-15 for   1630.
 Iteration    1 A*A^-1 deviation from orthogonality  is 2.02D-15 for   1614    319.
 Iteration    1 A^-1*A deviation from unit magnitude is 3.33D-15 for   1630.
 Iteration    1 A^-1*A deviation from orthogonality  is 7.86D-14 for   1458   1357.
 E= -759.733593705000    
 DIIS: error= 5.40D-02 at cycle   1 NSaved=   1.
 NSaved= 1 IEnMin= 1 EnMin= -759.733593705000     IErMin= 1 ErrMin= 5.40D-02
 ErrMax= 5.40D-02  0.00D+00 EMaxC= 1.00D-01 BMatC= 1.14D+00 BMatP= 1.14D+00
 IDIUse=3 WtCom= 4.60D-01 WtEn= 5.40D-01
 Coeff-Com:  0.100D+01
 Coeff-En:   0.100D+01
 Coeff:      0.100D+01
 Gap=     0.309 Goal=   None    Shift=    0.000
 GapD=    0.309 DampG=1.000 DampE=0.500 DampFc=0.5000 IDamp=-1.
 Damping current iteration by 5.00D-01
 RMSDP=8.48D-03 MaxDP=1.43D+00              OVMax= 1.29D-01

 Cycle   2  Pass 1  IDiag  1:
 RMSU=  2.89D-03    CP:  8.66D-01
 E= -759.810862702382     Delta-E=       -0.077268997382 Rises=F Damp=T
 DIIS: error= 2.57D-02 at cycle   2 NSaved=   2.
 NSaved= 2 IEnMin= 2 EnMin= -759.810862702382     IErMin= 2 ErrMin= 2.57D-02
 ErrMax= 2.57D-02  0.00D+00 EMaxC= 1.00D-01 BMatC= 2.38D-01 BMatP= 1.14D+00
 IDIUse=3 WtCom= 7.43D-01 WtEn= 2.57D-01
 Coeff-Com: -0.682D+00 0.168D+01
 Coeff-En:   0.000D+00 0.100D+01
 Coeff:     -0.507D+00 0.151D+01
 Gap=     0.336 Goal=   None    Shift=    0.000
 RMSDP=4.19D-03 MaxDP=5.56D-01 DE=-7.73D-02 OVMax= 1.08D-01

 Cycle   3  Pass 1  IDiag  1:
 RMSU=  1.84D-03    CP:  7.26D-01  1.66D+00
 E= -759.859758548459     Delta-E=       -0.048895846077 Rises=F Damp=F
 DIIS: error= 1.06D-02 at cycle   3 NSaved=   3.
 NSaved= 3 IEnMin= 3 EnMin= -759.859758548459     IErMin= 3 ErrMin= 1.06D-02
 ErrMax= 1.06D-02  0.00D+00 EMaxC= 1.00D-01 BMatC= 3.67D-02 BMatP= 2.38D-01
 IDIUse=3 WtCom= 8.94D-01 WtEn= 1.06D-01
 Coeff-Com: -0.356D+00 0.767D+00 0.588D+00
 Coeff-En:   0.000D+00 0.000D+00 0.100D+01
 Coeff:     -0.318D+00 0.686D+00 0.632D+00
 Gap=     0.303 Goal=   None    Shift=    0.000
 RMSDP=1.02D-03 MaxDP=9.73D-02 DE=-4.89D-02 OVMax= 5.64D-02

 Cycle   4  Pass 1  IDiag  1:
 RMSU=  4.46D-04    CP:  7.21D-01  1.89D+00  6.61D-01
 E= -759.888183527556     Delta-E=       -0.028424979097 Rises=F Damp=F
 DIIS: error= 3.46D-03 at cycle   4 NSaved=   4.
 NSaved= 4 IEnMin= 4 EnMin= -759.888183527556     IErMin= 4 ErrMin= 3.46D-03
 ErrMax= 3.46D-03  0.00D+00 EMaxC= 1.00D-01 BMatC= 3.69D-03 BMatP= 3.67D-02
 IDIUse=3 WtCom= 9.65D-01 WtEn= 3.46D-02
 Coeff-Com: -0.170D+00 0.361D+00 0.364D+00 0.445D+00
 Coeff-En:   0.000D+00 0.000D+00 0.000D+00 0.100D+01
 Coeff:     -0.164D+00 0.348D+00 0.351D+00 0.464D+00
 Gap=     0.300 Goal=   None    Shift=    0.000
 RMSDP=3.37D-04 MaxDP=4.01D-02 DE=-2.84D-02 OVMax= 1.26D-02

 Cycle   5  Pass 1  IDiag  1:
 RMSU=  1.52D-04    CP:  7.13D-01  1.87D+00  7.56D-01  6.78D-01
 E= -759.890781028144     Delta-E=       -0.002597500588 Rises=F Damp=F
 DIIS: error= 5.77D-04 at cycle   5 NSaved=   5.
 NSaved= 5 IEnMin= 5 EnMin= -759.890781028144     IErMin= 5 ErrMin= 5.77D-04
 ErrMax= 5.77D-04  0.00D+00 EMaxC= 1.00D-01 BMatC= 7.77D-05 BMatP= 3.69D-03
 IDIUse=3 WtCom= 9.94D-01 WtEn= 5.77D-03
 Coeff-Com: -0.344D-01 0.723D-01 0.889D-01 0.185D+00 0.688D+00
 Coeff-En:   0.000D+00 0.000D+00 0.000D+00 0.000D+00 0.100D+01
 Coeff:     -0.343D-01 0.719D-01 0.884D-01 0.184D+00 0.690D+00
 Gap=     0.300 Goal=   None    Shift=    0.000
 RMSDP=8.41D-05 MaxDP=7.31D-03 DE=-2.60D-03 OVMax= 3.82D-03

 Cycle   6  Pass 1  IDiag  1:
 RMSU=  4.24D-05    CP:  7.12D-01  1.89D+00  7.66D-01  7.79D-01  9.47D-01
 E= -759.890843246609     Delta-E=       -0.000062218466 Rises=F Damp=F
 DIIS: error= 2.59D-04 at cycle   6 NSaved=   6.
 NSaved= 6 IEnMin= 6 EnMin= -759.890843246609     IErMin= 6 ErrMin= 2.59D-04
 ErrMax= 2.59D-04  0.00D+00 EMaxC= 1.00D-01 BMatC= 1.39D-05 BMatP= 7.77D-05
 IDIUse=3 WtCom= 9.97D-01 WtEn= 2.59D-03
 Coeff-Com:  0.130D-01-0.279D-01-0.204D-01 0.961D-03 0.331D+00 0.703D+00
 Coeff-En:   0.000D+00 0.000D+00 0.000D+00 0.000D+00 0.000D+00 0.100D+01
 Coeff:      0.129D-01-0.278D-01-0.204D-01 0.959D-03 0.331D+00 0.704D+00
 Gap=     0.300 Goal=   None    Shift=    0.000
 RMSDP=4.13D-05 MaxDP=4.75D-03 DE=-6.22D-05 OVMax= 2.03D-03

 Cycle   7  Pass 1  IDiag  1:
 RMSU=  1.54D-05    CP:  7.10D-01  1.89D+00  7.74D-01  7.90D-01  1.05D+00
                    CP:  9.48D-01
 E= -759.890858596098     Delta-E=       -0.000015349489 Rises=F Damp=F
 DIIS: error= 6.25D-05 at cycle   7 NSaved=   7.
 NSaved= 7 IEnMin= 7 EnMin= -759.890858596098     IErMin= 7 ErrMin= 6.25D-05
 ErrMax= 6.25D-05  0.00D+00 EMaxC= 1.00D-01 BMatC= 1.42D-06 BMatP= 1.39D-05
 IDIUse=1 WtCom= 1.00D+00 WtEn= 0.00D+00
 Coeff-Com:  0.898D-02-0.190D-01-0.182D-01-0.258D-01 0.505D-01 0.270D+00
 Coeff-Com:  0.733D+00
 Coeff:      0.898D-02-0.190D-01-0.182D-01-0.258D-01 0.505D-01 0.270D+00
 Coeff:      0.733D+00
 Gap=     0.300 Goal=   None    Shift=    0.000
 RMSDP=1.17D-05 MaxDP=1.30D-03 DE=-1.53D-05 OVMax= 5.88D-04

 Cycle   8  Pass 1  IDiag  1:
 RMSU=  5.29D-06    CP:  7.10D-01  1.89D+00  7.76D-01  7.94D-01  1.09D+00
                    CP:  1.02D+00  1.09D+00
 E= -759.890860482119     Delta-E=       -0.000001886021 Rises=F Damp=F
 DIIS: error= 3.66D-05 at cycle   8 NSaved=   8.
 NSaved= 8 IEnMin= 8 EnMin= -759.890860482119     IErMin= 8 ErrMin= 3.66D-05
 ErrMax= 3.66D-05  0.00D+00 EMaxC= 1.00D-01 BMatC= 2.47D-07 BMatP= 1.42D-06
 IDIUse=1 WtCom= 1.00D+00 WtEn= 0.00D+00
 Coeff-Com:  0.126D-02-0.261D-02-0.374D-02-0.130D-01-0.341D-01-0.977D-03
 Coeff-Com:  0.308D+00 0.745D+00
 Coeff:      0.126D-02-0.261D-02-0.374D-02-0.130D-01-0.341D-01-0.977D-03
 Coeff:      0.308D+00 0.745D+00
 Gap=     0.300 Goal=   None    Shift=    0.000
 RMSDP=5.52D-06 MaxDP=5.00D-04 DE=-1.89D-06 OVMax= 4.24D-04

 Cycle   9  Pass 1  IDiag  1:
 RMSU=  3.03D-06    CP:  7.10D-01  1.89D+00  7.76D-01  7.94D-01  1.11D+00
                    CP:  1.04D+00  1.25D+00  1.08D+00
 E= -759.890860832664     Delta-E=       -0.000000350546 Rises=F Damp=F
 DIIS: error= 1.50D-05 at cycle   9 NSaved=   9.
 NSaved= 9 IEnMin= 9 EnMin= -759.890860832664     IErMin= 9 ErrMin= 1.50D-05
 ErrMax= 1.50D-05  0.00D+00 EMaxC= 1.00D-01 BMatC= 3.56D-08 BMatP= 2.47D-07
 IDIUse=1 WtCom= 1.00D+00 WtEn= 0.00D+00
 Coeff-Com: -0.995D-03 0.213D-02 0.152D-02-0.162D-02-0.189D-01-0.389D-01
 Coeff-Com:  0.798D-02 0.305D+00 0.744D+00
 Coeff:     -0.995D-03 0.213D-02 0.152D-02-0.162D-02-0.189D-01-0.389D-01
 Coeff:      0.798D-02 0.305D+00 0.744D+00
 Gap=     0.300 Goal=   None    Shift=    0.000
 RMSDP=1.80D-06 MaxDP=1.76D-04 DE=-3.51D-07 OVMax= 1.80D-04

 Cycle  10  Pass 1  IDiag  1:
 RMSU=  8.45D-07    CP:  7.10D-01  1.89D+00  7.76D-01  7.93D-01  1.11D+00
                    CP:  1.05D+00  1.28D+00  1.21D+00  1.10D+00
 E= -759.890860881258     Delta-E=       -0.000000048594 Rises=F Damp=F
 DIIS: error= 4.68D-06 at cycle  10 NSaved=  10.
 NSaved=10 IEnMin=10 EnMin= -759.890860881258     IErMin=10 ErrMin= 4.68D-06
 ErrMax= 4.68D-06  0.00D+00 EMaxC= 1.00D-01 BMatC= 7.56D-09 BMatP= 3.56D-08
 IDIUse=1 WtCom= 1.00D+00 WtEn= 0.00D+00
 Coeff-Com: -0.592D-03 0.125D-02 0.117D-02 0.104D-02-0.268D-02-0.179D-01
 Coeff-Com: -0.548D-01 0.128D-01 0.366D+00 0.694D+00
 Coeff:     -0.592D-03 0.125D-02 0.117D-02 0.104D-02-0.268D-02-0.179D-01
 Coeff:     -0.548D-01 0.128D-01 0.366D+00 0.694D+00
 Gap=     0.300 Goal=   None    Shift=    0.000
 RMSDP=8.07D-07 MaxDP=5.90D-05 DE=-4.86D-08 OVMax= 5.27D-05

 Cycle  11  Pass 1  IDiag  1:
 RMSU=  3.63D-07    CP:  7.10D-01  1.89D+00  7.76D-01  7.92D-01  1.11D+00
                    CP:  1.05D+00  1.30D+00  1.24D+00  1.23D+00  9.79D-01
 E= -759.890860890387     Delta-E=       -0.000000009129 Rises=F Damp=F
 DIIS: error= 2.03D-06 at cycle  11 NSaved=  11.
 NSaved=11 IEnMin=11 EnMin= -759.890860890387     IErMin=11 ErrMin= 2.03D-06
 ErrMax= 2.03D-06  0.00D+00 EMaxC= 1.00D-01 BMatC= 3.73D-10 BMatP= 7.56D-09
 IDIUse=1 WtCom= 1.00D+00 WtEn= 0.00D+00
 Coeff-Com: -0.963D-04 0.203D-03 0.236D-03 0.446D-03 0.936D-03-0.252D-02
 Coeff-Com: -0.218D-01-0.184D-01 0.741D-01 0.214D+00 0.753D+00
 Coeff:     -0.963D-04 0.203D-03 0.236D-03 0.446D-03 0.936D-03-0.252D-02
 Coeff:     -0.218D-01-0.184D-01 0.741D-01 0.214D+00 0.753D+00
 Gap=     0.300 Goal=   None    Shift=    0.000
 RMSDP=2.13D-07 MaxDP=1.92D-05 DE=-9.13D-09 OVMax= 2.07D-05

 Cycle  12  Pass 1  IDiag  1:
 RMSU=  1.00D-07    CP:  7.10D-01  1.89D+00  7.76D-01  7.92D-01  1.11D+00
                    CP:  1.05D+00  1.31D+00  1.24D+00  1.25D+00  1.04D+00
                    CP:  1.10D+00
 E= -759.890860890956     Delta-E=       -0.000000000569 Rises=F Damp=F
 DIIS: error= 4.80D-07 at cycle  12 NSaved=  12.
 NSaved=12 IEnMin=12 EnMin= -759.890860890956     IErMin=12 ErrMin= 4.80D-07
 ErrMax= 4.80D-07  0.00D+00 EMaxC= 1.00D-01 BMatC= 1.06D-10 BMatP= 3.73D-10
 IDIUse=1 WtCom= 1.00D+00 WtEn= 0.00D+00
 Coeff-Com:  0.412D-04-0.884D-04-0.541D-04 0.753D-04 0.893D-03 0.183D-02
 Coeff-Com: -0.162D-02-0.943D-02-0.281D-01-0.396D-01 0.338D+00 0.738D+00
 Coeff:      0.412D-04-0.884D-04-0.541D-04 0.753D-04 0.893D-03 0.183D-02
 Coeff:     -0.162D-02-0.943D-02-0.281D-01-0.396D-01 0.338D+00 0.738D+00
 Gap=     0.300 Goal=   None    Shift=    0.000
 RMSDP=9.52D-08 MaxDP=7.05D-06 DE=-5.69D-10 OVMax= 6.47D-06

 Cycle  13  Pass 1  IDiag  1:
 RMSU=  3.91D-08    CP:  7.10D-01  1.89D+00  7.76D-01  7.92D-01  1.11D+00
                    CP:  1.05D+00  1.31D+00  1.25D+00  1.27D+00  1.06D+00
                    CP:  1.22D+00  1.12D+00
 E= -759.890860891101     Delta-E=       -0.000000000145 Rises=F Damp=F
 DIIS: error= 1.76D-07 at cycle  13 NSaved=  13.
 NSaved=13 IEnMin=13 EnMin= -759.890860891101     IErMin=13 ErrMin= 1.76D-07
 ErrMax= 1.76D-07  0.00D+00 EMaxC= 1.00D-01 BMatC= 4.85D-12 BMatP= 1.06D-10
 IDIUse=1 WtCom= 1.00D+00 WtEn= 0.00D+00
 Coeff-Com:  0.190D-04-0.403D-04-0.349D-04-0.250D-04 0.117D-03 0.719D-03
 Coeff-Com:  0.156D-02-0.292D-04-0.140D-01-0.322D-01 0.202D-01 0.154D+00
 Coeff-Com:  0.869D+00
 Coeff:      0.190D-04-0.403D-04-0.349D-04-0.250D-04 0.117D-03 0.719D-03
 Coeff:      0.156D-02-0.292D-04-0.140D-01-0.322D-01 0.202D-01 0.154D+00
 Coeff:      0.869D+00
 Gap=     0.300 Goal=   None    Shift=    0.000
 RMSDP=2.65D-08 MaxDP=2.01D-06 DE=-1.45D-10 OVMax= 2.34D-06

 Cycle  14  Pass 1  IDiag  1:
 RMSU=  1.44D-08    CP:  7.10D-01  1.89D+00  7.76D-01  7.92D-01  1.11D+00
                    CP:  1.05D+00  1.31D+00  1.25D+00  1.27D+00  1.07D+00
                    CP:  1.26D+00  1.17D+00  1.19D+00
 E= -759.890860891100     Delta-E=        0.000000000001 Rises=F Damp=F
 DIIS: error= 8.23D-08 at cycle  14 NSaved=  14.
 NSaved=14 IEnMin=13 EnMin= -759.890860891101     IErMin=14 ErrMin= 8.23D-08
 ErrMax= 8.23D-08  0.00D+00 EMaxC= 1.00D-01 BMatC= 1.37D-12 BMatP= 4.85D-12
 IDIUse=1 WtCom= 1.00D+00 WtEn= 0.00D+00
 Coeff-Com:  0.244D-05-0.500D-05-0.753D-05-0.214D-04-0.781D-04 0.613D-04
 Coeff-Com:  0.825D-03 0.142D-02-0.168D-02-0.732D-02-0.371D-01-0.506D-01
 Coeff-Com:  0.375D+00 0.720D+00
 Coeff:      0.244D-05-0.500D-05-0.753D-05-0.214D-04-0.781D-04 0.613D-04
 Coeff:      0.825D-03 0.142D-02-0.168D-02-0.732D-02-0.371D-01-0.506D-01
 Coeff:      0.375D+00 0.720D+00
 Gap=     0.300 Goal=   None    Shift=    0.000
 RMSDP=9.04D-09 MaxDP=6.09D-07 DE= 6.82D-13 OVMax= 8.46D-07

 Error on total polarization charges =  0.01625
 SCF Done:  E(RCAM-B3LYP) =  -759.890860891     A.U. after   14 cycles
            NFock= 14  Conv=0.90D-08     -V/T= 2.0031
 KE= 7.575792157718D+02 PE=-3.532496864760D+03 EE= 1.141201942497D+03
 Leave Link  502 at Thu Jan  5 15:00:45 2023, MaxMem=  1342177280 cpu:            1027.9 elap:              21.4
 (Enter /shared/gaussian/g16.b01/AVX2/g16/l801.exe)
 DoSCS=F DFT=T ScalE2(SS,OS)=  1.000000  1.000000
 ExpMin= 4.38D-02 ExpMax= 8.59D+03 ExpMxC= 1.30D+03 IAcc=3 IRadAn=         5 AccDes= 0.00D+00
 HarFok:  IExCor=  205 AccDes= 0.00D+00 IRadAn=         5 IDoV=-2 UseB2=F ITyADJ=14
 ICtDFT= 12500011 ScaDFX=  1.000000  1.000000  1.000000  1.000000
 Largest valence mixing into a core orbital is  4.85D-05
 Largest core mixing into a valence orbital is  1.01D-05
 Range of M.O.s used for correlation:    14   370
 NBasis=   370 NAE=    53 NBE=    53 NFC=    13 NFV=     0
 NROrb=    357 NOA=    40 NOB=    40 NVA=   317 NVB=   317

 **** Warning!!: The largest alpha MO coefficient is  0.12208706D+03

 Leave Link  801 at Thu Jan  5 15:00:45 2023, MaxMem=  1342177280 cpu:               2.7 elap:               0.1
 (Enter /shared/gaussian/g16.b01/AVX2/g16/l914.exe)
 RHF ground state
 Two-electron integrals replicated using symmetry.
 MDV=  1342177280 DFT=T DoStab=F Mixed=T DoRPA=T DoScal=F NonHer=T
 NEqPCM:  Using equilibrium solvation (IEInf=0, Eps=  78.3553, EpsInf=   1.7778)
 Making orbital integer symmetry assigments:
 Orbital symmetries:
       Occupied  (A) (A) (A) (A) (A) (A) (A) (A) (A) (A) (A) (A)
                 (A) (A) (A) (A) (A) (A) (A) (A) (A) (A) (A) (A)
                 (A) (A) (A) (A) (A) (A) (A) (A) (A) (A) (A) (A)
                 (A) (A) (A) (A) (A) (A) (A) (A) (A) (A) (A) (A)
                 (A) (A) (A) (A) (A)
       Virtual   (A) (A) (A) (A) (A) (A) (A) (A) (A) (A) (A) (A)
                 (A) (A) (A) (A) (A) (A) (A) (A) (A) (A) (A) (A)
                 (A) (A) (A) (A) (A) (A) (A) (A) (A) (A) (A) (A)
                 (A) (A) (A) (A) (A) (A) (A) (A) (A) (A) (A) (A)
                 (A) (A) (A) (A) (A) (A) (A) (A) (A) (A) (A) (A)
                 (A) (A) (A) (A) (A) (A) (A) (A) (A) (A) (A) (A)
                 (A) (A) (A) (A) (A) (A) (A) (A) (A) (A) (A) (A)
                 (A) (A) (A) (A) (A) (A) (A) (A) (A) (A) (A) (A)
                 (A) (A) (A) (A) (A) (A) (A) (A) (A) (A) (A) (A)
                 (A) (A) (A) (A) (A) (A) (A) (A) (A) (A) (A) (A)
                 (A) (A) (A) (A) (A) (A) (A) (A) (A) (A) (A) (A)
                 (A) (A) (A) (A) (A) (A) (A) (A) (A) (A) (A) (A)
                 (A) (A) (A) (A) (A) (A) (A) (A) (A) (A) (A) (A)
                 (A) (A) (A) (A) (A) (A) (A) (A) (A) (A) (A) (A)
                 (A) (A) (A) (A) (A) (A) (A) (A) (A) (A) (A) (A)
                 (A) (A) (A) (A) (A) (A) (A) (A) (A) (A) (A) (A)
                 (A) (A) (A) (A) (A) (A) (A) (A) (A) (A) (A) (A)
                 (A) (A) (A) (A) (A) (A) (A) (A) (A) (A) (A) (A)
                 (A) (A) (A) (A) (A) (A) (A) (A) (A) (A) (A) (A)
                 (A) (A) (A) (A) (A) (A) (A) (A) (A) (A) (A) (A)
                 (A) (A) (A) (A) (A) (A) (A) (A) (A) (A) (A) (A)
                 (A) (A) (A) (A) (A) (A) (A) (A) (A) (A) (A) (A)
                 (A) (A) (A) (A) (A) (A) (A) (A) (A) (A) (A) (A)
                 (A) (A) (A) (A) (A) (A) (A) (A) (A) (A) (A) (A)
                 (A) (A) (A) (A) (A) (A) (A) (A) (A) (A) (A) (A)
                 (A) (A) (A) (A) (A) (A) (A) (A) (A) (A) (A) (A)
                 (A) (A) (A) (A) (A)
    40 initial guesses have been made.
 Convergence on wavefunction:    0.000001000000000
 Davidson Disk Diagonalization:  ConvIn= 1.00D-06 SkipCon=T Conv= 1.00D-06.
 Max sub-space:  2000 roots to seek:    40 dimension of matrix:        25360
 Iteration     1 Dimension    40 NMult     0 NNew     40
 CISAX will form    40 AO SS matrices at one time.
 NMat=    40 NSing=    40 JSym2X= 0.
 FoFJK:  IHMeth= 1 ICntrl=       0 DoSepK=T KAlg= 0 I1Cent=           0 FoldK=F
 IRaf=         1 NMat=      80 IRICut=       1 DoRegI=T DoRafI=F ISym2E= 0 IDoP0=3 IntGTp=3.
 FoFCou: FMM=F IPFlag=           0 FMFlag=      100000 FMFlg1=           0
         NFxFlg=           0 DoJE=F BraDBF=F KetDBF=F FulRan=T
         wScrn=  0.000000 ICntrl=       500 IOpCl=  0 I1Cent=           0 NGrid=           0
         NMat0=   40 NMatS0=     40 NMatT0=    0 NMatD0=   40 NMtDS0=    0 NMtDT0=    0
 Symmetry not used in FoFCou.
 New state      2 was old state      6
 New state      3 was old state      2
 New state      4 was old state      3
 New state      5 was old state     17
 New state      6 was old state      4
 New state      7 was old state      5
 New state      9 was old state     11
 New state     10 was old state      9
 Excitation Energies [eV] at current iteration:
 Root      1 :     5.754462552796336
 Root      2 :     5.792361153229843
 Root      3 :     6.599453229200533
 Root      4 :     6.925845213991797
 Root      5 :     7.225178051062340
 Root      6 :     7.275747947982738
 Root      7 :     7.384530875309344
 Root      8 :     7.515559441519768
 Root      9 :     7.568016619217972
 Root     10 :     7.685958456894957
 Root     11 :     7.990380310478161
 Root     12 :     8.054910815527736
 Root     13 :     8.087272310990523
 Root     14 :     8.128439599334669
 Root     15 :     8.160313576594396
 Root     16 :     8.271210307970927
 Root     17 :     8.386844459026101
 Root     18 :     8.463256038911641
 Root     19 :     8.519961987165852
 Root     20 :     8.529066724931077
 Root     21 :     8.582175161554769
 Root     22 :     8.608489605046314
 Root     23 :     8.643204522440467
 Root     24 :     8.737198582479708
 Root     25 :     8.776397606145773
 Root     26 :     8.816423516885411
 Root     27 :     8.963413181370548
 Root     28 :     9.067325041043055
 Root     29 :     9.147620047255158
 Root     30 :     9.193696616457112
 Root     31 :     9.213674520095550
 Root     32 :     9.258837459670348
 Root     33 :     9.267883822504762
 Root     34 :     9.416471633429698
 Root     35 :     9.491762559508706
 Root     36 :     9.515878183211676
 Root     37 :     9.565239217456988
 Root     38 :     9.647288451779200
 Root     39 :     9.928546197034693
 Root     40 :     9.956515781546921
 Iteration     2 Dimension    60 NMult    40 NNew     20
 CISAX will form    20 AO SS matrices at one time.
 NMat=    20 NSing=    20 JSym2X= 0.
 Root      1 not converged, maximum delta is    0.055224633936522
 Root      2 not converged, maximum delta is    0.069523557441626
 New state      3 was old state      4
 Root      3 not converged, maximum delta is    0.120550459829832
 New state      4 was old state      3
 Root      4 not converged, maximum delta is    0.038679002600422
 New state      5 was old state      8
 Root      5 not converged, maximum delta is    0.149075401469385
 New state      6 was old state      5
 Root      6 not converged, maximum delta is    0.134531643877737
 New state      7 was old state      6
 Root      7 not converged, maximum delta is    0.068860029187771
 New state      8 was old state      7
 Root      8 not converged, maximum delta is    0.052734703528014
 Root      9 not converged, maximum delta is    0.129207662191832
 Root     10 not converged, maximum delta is    0.086568478707617
 Excitation Energies [eV] at current iteration:
 Root      1 :     5.080022155762872   Change is   -0.674440397033465
 Root      2 :     5.541822780899328   Change is   -0.250538372330515
 Root      3 :     6.306812201772145   Change is   -0.619033012219652
 Root      4 :     6.482984143542113   Change is   -0.116469085658419
 Root      5 :     6.798369152319997   Change is   -0.717190289199771
 Root      6 :     6.825402070651704   Change is   -0.399775980410635
 Root      7 :     7.139051606493633   Change is   -0.136696341489105
 Root      8 :     7.258699252143034   Change is   -0.125831623166310
 Root      9 :     7.422020765651048   Change is   -0.145995853566924
 Root     10 :     7.538663518823432   Change is   -0.147294938071525
 Iteration     3 Dimension    80 NMult    60 NNew     20
 CISAX will form    20 AO SS matrices at one time.
 NMat=    20 NSing=    20 JSym2X= 0.
 Root      1 not converged, maximum delta is    0.017916410837562
 Root      2 not converged, maximum delta is    0.008670022082222
 Root      3 not converged, maximum delta is    0.010732670682764
 Root      4 not converged, maximum delta is    0.003410328962342
 Root      5 not converged, maximum delta is    0.027086151126270
 Root      6 not converged, maximum delta is    0.034417875235684
 Root      7 not converged, maximum delta is    0.007061751325281
 Root      8 not converged, maximum delta is    0.008016678312161
 Root      9 not converged, maximum delta is    0.030573882676781
 Root     10 not converged, maximum delta is    0.064286062741718
 Excitation Energies [eV] at current iteration:
 Root      1 :     5.037763081568775   Change is   -0.042259074194096
 Root      2 :     5.534290633933796   Change is   -0.007532146965531
 Root      3 :     6.276443415181804   Change is   -0.030368786590340
 Root      4 :     6.481184655181539   Change is   -0.001799488360574
 Root      5 :     6.767296433159566   Change is   -0.031072719160431
 Root      6 :     6.792997014794612   Change is   -0.032405055857092
 Root      7 :     7.134158424879907   Change is   -0.004893181613726
 Root      8 :     7.253932195978494   Change is   -0.004767056164541
 Root      9 :     7.402148975148669   Change is   -0.019871790502380
 Root     10 :     7.526363946089845   Change is   -0.012299572733587
 Iteration     4 Dimension   100 NMult    80 NNew     20
 CISAX will form    20 AO SS matrices at one time.
 NMat=    20 NSing=    20 JSym2X= 0.
 Root      1 not converged, maximum delta is    0.002463764448575
 Root      2 not converged, maximum delta is    0.001932460267418
 Root      3 not converged, maximum delta is    0.004150797058373
 Root      4 not converged, maximum delta is    0.000443936742150
 Root      5 not converged, maximum delta is    0.003163683085176
 Root      6 not converged, maximum delta is    0.007738295635015
 Root      7 not converged, maximum delta is    0.001232186242344
 Root      8 not converged, maximum delta is    0.001802727867992
 Root      9 not converged, maximum delta is    0.013933360253143
 Root     10 not converged, maximum delta is    0.077630786303082
 Excitation Energies [eV] at current iteration:
 Root      1 :     5.034869648877678   Change is   -0.002893432691097
 Root      2 :     5.533451899715836   Change is   -0.000838734217962
 Root      3 :     6.272827533106009   Change is   -0.003615882075794
 Root      4 :     6.481115415504622   Change is   -0.000069239676918
 Root      5 :     6.764301929803359   Change is   -0.002994503356206
 Root      6 :     6.790212872591943   Change is   -0.002784142202669
 Root      7 :     7.133905227399744   Change is   -0.000253197480164
 Root      8 :     7.253593747657894   Change is   -0.000338448320600
 Root      9 :     7.399020704839254   Change is   -0.003128270309415
 Root     10 :     7.518373955061259   Change is   -0.007989991028585
 Iteration     5 Dimension   120 NMult   100 NNew     20
 CISAX will form    20 AO SS matrices at one time.
 NMat=    20 NSing=    20 JSym2X= 0.
 Root      1 not converged, maximum delta is    0.000503891382180
 Root      2 not converged, maximum delta is    0.000232976829469
 Root      3 not converged, maximum delta is    0.000836140962273
 Root      4 not converged, maximum delta is    0.000114935197999
 Root      5 not converged, maximum delta is    0.001187772580527
 Root      6 not converged, maximum delta is    0.001047688046830
 Root      7 not converged, maximum delta is    0.000598886113232
 Root      8 not converged, maximum delta is    0.000568521157762
 Root      9 not converged, maximum delta is    0.001988118887531
 Root     10 not converged, maximum delta is    0.023333845485685
 Excitation Energies [eV] at current iteration:
 Root      1 :     5.034712618518626   Change is   -0.000157030359052
 Root      2 :     5.533422181872492   Change is   -0.000029717843344
 Root      3 :     6.272571670109095   Change is   -0.000255862996915
 Root      4 :     6.481110864406264   Change is   -0.000004551098357
 Root      5 :     6.763971775407501   Change is   -0.000330154395859
 Root      6 :     6.790045538163529   Change is   -0.000167334428414
 Root      7 :     7.133882879131612   Change is   -0.000022348268132
 Root      8 :     7.253559419072089   Change is   -0.000034328585805
 Root      9 :     7.398801334368667   Change is   -0.000219370470588
 Root     10 :     7.516155181629713   Change is   -0.002218773431547
 Iteration     6 Dimension   140 NMult   120 NNew     20
 CISAX will form    20 AO SS matrices at one time.
 NMat=    20 NSing=    20 JSym2X= 0.
 Root      1 not converged, maximum delta is    0.000118299663672
 Root      2 not converged, maximum delta is    0.000047038705172
 Root      3 not converged, maximum delta is    0.000422631397997
 Root      4 not converged, maximum delta is    0.000047358803330
 Root      5 not converged, maximum delta is    0.000700773591846
 Root      6 not converged, maximum delta is    0.000148923068402
 Root      7 not converged, maximum delta is    0.000249783613839
 Root      8 not converged, maximum delta is    0.000404485798103
 Root      9 not converged, maximum delta is    0.000372054338726
 Root     10 not converged, maximum delta is    0.003475686066610
 Excitation Energies [eV] at current iteration:
 Root      1 :     5.034705404041422   Change is   -0.000007214477204
 Root      2 :     5.533421078365790   Change is   -0.000001103506702
 Root      3 :     6.272552232211021   Change is   -0.000019437898073
 Root      4 :     6.481110502644222   Change is   -0.000000361762043
 Root      5 :     6.763935395482345   Change is   -0.000036379925156
 Root      6 :     6.790033479814278   Change is   -0.000012058349250
 Root      7 :     7.133879301066637   Change is   -0.000003578064975
 Root      8 :     7.253552455047677   Change is   -0.000006964024413
 Root      9 :     7.398785080383378   Change is   -0.000016253985288
 Root     10 :     7.515866903037484   Change is   -0.000288278592228
 Iteration     7 Dimension   160 NMult   140 NNew     20
 CISAX will form    20 AO SS matrices at one time.
 NMat=    20 NSing=    20 JSym2X= 0.
 Root      1 not converged, maximum delta is    0.000019039115593
 Root      2 not converged, maximum delta is    0.000011907091524
 Root      3 not converged, maximum delta is    0.000143351951831
 Root      4 not converged, maximum delta is    0.000017468396583
 Root      5 not converged, maximum delta is    0.000213208986112
 Root      6 not converged, maximum delta is    0.000041432988036
 Root      7 not converged, maximum delta is    0.000076134270917
 Root      8 not converged, maximum delta is    0.000104743013710
 Root      9 not converged, maximum delta is    0.000093981524607
 Root     10 not converged, maximum delta is    0.001059560287701
 Excitation Energies [eV] at current iteration:
 Root      1 :     5.034705157362115   Change is   -0.000000246679306
 Root      2 :     5.533421029625330   Change is   -0.000000048740459
 Root      3 :     6.272550654999811   Change is   -0.000001577211211
 Root      4 :     6.481110463633836   Change is   -0.000000039010385
 Root      5 :     6.763931311818542   Change is   -0.000004083663802
 Root      6 :     6.790032740136148   Change is   -0.000000739678131
 Root      7 :     7.133878881840750   Change is   -0.000000419225887
 Root      8 :     7.253551396006019   Change is   -0.000001059041657
 Root      9 :     7.398783768736457   Change is   -0.000001311646921
 Root     10 :     7.515820989343282   Change is   -0.000045913694203
 Iteration     8 Dimension   180 NMult   160 NNew     20
 CISAX will form    20 AO SS matrices at one time.
 NMat=    20 NSing=    20 JSym2X= 0.
 Root      1 not converged, maximum delta is    0.000003454123047
 Root      2 not converged, maximum delta is    0.000001262008417
 Root      3 not converged, maximum delta is    0.000019985975417
 Root      4 not converged, maximum delta is    0.000004839717715
 Root      5 not converged, maximum delta is    0.000043929543745
 Root      6 not converged, maximum delta is    0.000011342818605
 Root      7 not converged, maximum delta is    0.000030514132568
 Root      8 not converged, maximum delta is    0.000019632823190
 Root      9 not converged, maximum delta is    0.000031162661196
 Root     10 not converged, maximum delta is    0.000245588512169
 Excitation Energies [eV] at current iteration:
 Root      1 :     5.034705148714096   Change is   -0.000000008648019
 Root      2 :     5.533421027560641   Change is   -0.000000002064689
 Root      3 :     6.272550546800599   Change is   -0.000000108199211
 Root      4 :     6.481110460676002   Change is   -0.000000002957834
 Root      5 :     6.763930960387181   Change is   -0.000000351431361
 Root      6 :     6.790032690281331   Change is   -0.000000049854817
 Root      7 :     7.133878826070484   Change is   -0.000000055770266
 Root      8 :     7.253551308837893   Change is   -0.000000087168126
 Root      9 :     7.398783642739507   Change is   -0.000000125996949
 Root     10 :     7.515815843483497   Change is   -0.000005145859784
 Iteration     9 Dimension   200 NMult   180 NNew     20
 CISAX will form    20 AO SS matrices at one time.
 NMat=    20 NSing=    20 JSym2X= 0.
 Root      1 has converged.
 Root      2 has converged.
 Root      3 not converged, maximum delta is    0.000005316970590
 Root      4 has converged.
 Root      5 not converged, maximum delta is    0.000010991313861
 Root      6 not converged, maximum delta is    0.000002171743005
 Root      7 not converged, maximum delta is    0.000009036351361
 Root      8 not converged, maximum delta is    0.000005289486775
 Root      9 not converged, maximum delta is    0.000009309115316
 Root     10 not converged, maximum delta is    0.000064435278336
 Excitation Energies [eV] at current iteration:
 Root      1 :     5.034705148396775   Change is   -0.000000000317321
 Root      2 :     5.533421027468532   Change is   -0.000000000092110
 Root      3 :     6.272550539984003   Change is   -0.000000006816596
 Root      4 :     6.481110460504588   Change is   -0.000000000171414
 Root      5 :     6.763930932439888   Change is   -0.000000027947292
 Root      6 :     6.790032686786971   Change is   -0.000000003494359
 Root      7 :     7.133878818761785   Change is   -0.000000007308699
 Root      8 :     7.253551302628768   Change is   -0.000000006209125
 Root      9 :     7.398783629574242   Change is   -0.000000013165265
 Root     10 :     7.515815356517517   Change is   -0.000000486965980
 Iteration    10 Dimension   214 NMult   200 NNew     14
 CISAX will form    14 AO SS matrices at one time.
 NMat=    14 NSing=    14 JSym2X= 0.
 Root      1 has converged.
 Root      2 has converged.
 Root      3 has converged.
 Root      4 has converged.
 Root      5 not converged, maximum delta is    0.000001555533039
 Root      6 has converged.
 Root      7 not converged, maximum delta is    0.000001512510716
 Root      8 not converged, maximum delta is    0.000001416517872
 Root      9 not converged, maximum delta is    0.000002336965580
 Root     10 not converged, maximum delta is    0.000031203186109
 Excitation Energies [eV] at current iteration:
 Root      1 :     5.034705148390571   Change is   -0.000000000006205
 Root      2 :     5.533421027467492   Change is   -0.000000000001040
 Root      3 :     6.272550539645556   Change is   -0.000000000338448
 Root      4 :     6.481110460500390   Change is   -0.000000000004199
 Root      5 :     6.763930930751676   Change is   -0.000000001688213
 Root      6 :     6.790032686545738   Change is   -0.000000000241234
 Root      7 :     7.133878818167400   Change is   -0.000000000594385
 Root      8 :     7.253551302180872   Change is   -0.000000000447896
 Root      9 :     7.398783628391837   Change is   -0.000000001182405
 Root     10 :     7.515815311590258   Change is   -0.000000044927260
 Iteration    11 Dimension   224 NMult   214 NNew     10
 CISAX will form    10 AO SS matrices at one time.
 NMat=    10 NSing=    10 JSym2X= 0.
 Root      1 has converged.
 Root      2 has converged.
 Root      3 has converged.
 Root      4 has converged.
 Root      5 has converged.
 Root      6 has converged.
 Root      7 has converged.
 Root      8 has converged.
 Root      9 has converged.
 Root     10 not converged, maximum delta is    0.000011084359083
 Excitation Energies [eV] at current iteration:
 Root      1 :     5.034705148390228   Change is   -0.000000000000343
 Root      2 :     5.533421027467387   Change is   -0.000000000000104
 Root      3 :     6.272550539640025   Change is   -0.000000000005531
 Root      4 :     6.481110460500035   Change is   -0.000000000000355
 Root      5 :     6.763930930647798   Change is   -0.000000000103878
 Root      6 :     6.790032686544611   Change is   -0.000000000001126
 Root      7 :     7.133878818125812   Change is   -0.000000000041588
 Root      8 :     7.253551302146383   Change is   -0.000000000034489
 Root      9 :     7.398783628284894   Change is   -0.000000000106943
 Root     10 :     7.515815306892314   Change is   -0.000000004697943
 Iteration    12 Dimension   226 NMult   224 NNew      2
 CISAX will form     2 AO SS matrices at one time.
 NMat=     2 NSing=     2 JSym2X= 0.
 Root      1 has converged.
 Root      2 has converged.
 Root      3 has converged.
 Root      4 has converged.
 Root      5 has converged.
 Root      6 has converged.
 Root      7 has converged.
 Root      8 has converged.
 Root      9 has converged.
 Root     10 not converged, maximum delta is    0.000002793910417
 Excitation Energies [eV] at current iteration:
 Root      1 :     5.034705148390129   Change is   -0.000000000000098
 Root      2 :     5.533421027467402   Change is    0.000000000000015
 Root      3 :     6.272550539639959   Change is   -0.000000000000066
 Root      4 :     6.481110460499971   Change is   -0.000000000000063
 Root      5 :     6.763930930646764   Change is   -0.000000000001033
 Root      6 :     6.790032686544503   Change is   -0.000000000000109
 Root      7 :     7.133878818125708   Change is   -0.000000000000104
 Root      8 :     7.253551302146247   Change is   -0.000000000000136
 Root      9 :     7.398783628284571   Change is   -0.000000000000323
 Root     10 :     7.515815306417553   Change is   -0.000000000474761
 Iteration    13 Dimension   228 NMult   226 NNew      2
 CISAX will form     2 AO SS matrices at one time.
 NMat=     2 NSing=     2 JSym2X= 0.
 Root      1 has converged.
 Root      2 has converged.
 Root      3 has converged.
 Root      4 has converged.
 Root      5 has converged.
 Root      6 has converged.
 Root      7 has converged.
 Root      8 has converged.
 Root      9 has converged.
 Root     10 has converged.
 Excitation Energies [eV] at current iteration:
 Root      1 :     5.034705148390080   Change is   -0.000000000000049
 Root      2 :     5.533421027467358   Change is   -0.000000000000045
 Root      3 :     6.272550539639947   Change is   -0.000000000000013
 Root      4 :     6.481110460499958   Change is   -0.000000000000013
 Root      5 :     6.763930930646557   Change is   -0.000000000000207
 Root      6 :     6.790032686544418   Change is   -0.000000000000085
 Root      7 :     7.133878818125789   Change is    0.000000000000082
 Root      8 :     7.253551302146260   Change is    0.000000000000012
 Root      9 :     7.398783628284394   Change is   -0.000000000000177
 Root     10 :     7.515815306372982   Change is   -0.000000000044571
 Convergence achieved on expansion vectors.
 ***********************************************************************
 Excited states from <AA,BB:AA,BB> singles matrix:
 ***********************************************************************
 
 1PDM for each excited state written to RWF  633
 Ground to excited state transition densities written to RWF  633
 Ground to excited state transition electric dipole moments (Au):
       state          X           Y           Z        Dip. S.      Osc.
         1        -1.6834      0.4796     -0.0296      3.0647      0.3780
         2         0.0286      0.0074      0.0115      0.0010      0.0001
         3        -0.2258     -1.6053     -0.1402      2.6476      0.4069
         4         0.0029      0.0596     -0.1525      0.0268      0.0043
         5        -0.8148      0.8148      0.0394      1.3293      0.2203
         6        -0.0263      0.0842     -0.0176      0.0081      0.0013
         7         0.0165      0.0180     -0.1235      0.0159      0.0028
         8         0.0272      0.0196     -0.0811      0.0077      0.0014
         9         0.0021      0.0260      0.0711      0.0057      0.0010
        10         0.8925     -0.3992      0.0097      0.9561      0.1760
 Ground to excited state transition velocity dipole moments (Au):
       state          X           Y           Z        Dip. S.      Osc.
         1         0.3110     -0.0914      0.0052      0.1051      0.3787
         2        -0.0060     -0.0018     -0.0093      0.0001      0.0004
         3         0.0467      0.3671      0.0322      0.1380      0.3991
         4        -0.0005     -0.0140      0.0379      0.0016      0.0046
         5         0.1961     -0.1983     -0.0097      0.0779      0.2089
         6         0.0052     -0.0215      0.0061      0.0005      0.0014
         7        -0.0039     -0.0044      0.0311      0.0010      0.0026
         8        -0.0068     -0.0050      0.0205      0.0005      0.0012
         9        -0.0012     -0.0077     -0.0109      0.0002      0.0004
        10        -0.2398      0.1078     -0.0025      0.0691      0.1668
 Ground to excited state transition magnetic dipole moments (Au):
       state          X           Y           Z
         1         0.0417      0.0614     -1.7713
         2        -0.7394     -0.0163      0.0279
         3         0.0662     -0.0724      0.8143
         4         0.0807     -0.2347     -0.0495
         5        -0.0443     -0.0375     -0.5020
         6        -0.2727      0.6943     -0.0374
         7         0.3474      0.3763      0.0312
         8         0.1238      0.1363      0.0094
         9        -0.3595      0.2668     -0.0219
        10        -0.0063      0.0644      0.0848
 Ground to excited state transition velocity quadrupole moments (Au):
       state          XX          YY          ZZ          XY          XZ          YZ
         1         0.2941     -0.3502     -0.0140      0.7086     -0.0002      0.0202
         2         0.0525      0.0085     -0.0039      0.0149      0.0313     -0.0573
         3        -0.3216      1.1000      0.0592      0.5148      0.0346      0.0420
         4        -0.0101     -0.0276      0.0017     -0.0237      0.1999      0.0741
         5        -0.6331     -0.2775      0.0120      0.3019     -0.0327      0.0423
         6         0.0133      0.0602     -0.0090      0.0292     -0.0386     -0.0301
         7         0.0793     -0.0602     -0.0011      0.0204     -0.2681      0.2324
         8         0.0219      0.0600     -0.0417      0.0310     -0.1281      0.0296
         9         0.0379      0.0066     -0.0199     -0.0154     -0.0545     -0.0570
        10         0.1154     -0.1789     -0.1060     -0.1697      0.0670     -0.0513
 <0|del|b> * <b|rxdel|0> + <0|del|b> * <b|delr+rdel|0>
 Rotatory Strengths (R) in cgs (10**-40 erg-esu-cm/Gauss)
       state          XX          YY          ZZ    R(velocity)    E-M Angle
         1       -21.3021     12.1798      2.0643     -2.3527       90.18
         2        -0.5455      8.1063      7.0736      4.8781       59.61
         3         5.3959     22.5525    -19.5414      2.8023       89.48
         4         4.9223     -1.5775      0.7185      1.3544       82.32
         5         4.1107     10.5612     -4.3538      3.4393       88.53
         6       -22.4450     -2.7887    -21.7924    -15.6753      165.32
         7        -1.6822     -2.6256     -1.2574     -1.8551       97.29
         8        -0.6673     -1.9730     -0.9066     -1.1823      109.09
         9        -2.6719      0.7529     -1.6345     -1.1845      103.20
        10        -0.0942     16.8648      4.2995      7.0233       72.93
 1/2[<0|r|b>*<b|rxdel|0> + (<0|rxdel|b>*<b|r|0>)*]
 Rotatory Strengths (R) in cgs (10**-40 erg-esu-cm/Gauss)
       state          XX          YY          ZZ     R(length)
         1        49.5851    -20.8200    -37.0612     -2.7653
         2        14.9658      0.0859     -0.2268      4.9416
         3        10.5733    -82.1852     80.7103      3.0328
         4        -0.1650      9.8952     -5.3394      1.4636
         5       -25.5282     21.5925     13.9689      3.3444
         6        -5.0736    -41.3603     -0.4649    -15.6329
         7        -4.0531     -4.7901      2.7258     -2.0391
         8        -2.3811     -1.8880      0.5416     -1.2425
         9         0.5310     -4.9027      1.1016     -1.0900
        10         3.9505     18.1766     -0.5787      7.1828
  1/2[<0|del|b>*<b|r|0> + (<0|r|b>*<b|del|0>)*] (Au)
       state          X           Y           Z        Dip. S.   Osc.(frdel)
         1        -0.5236     -0.0438     -0.0002      0.5676      0.3784
         2        -0.0002     -0.0000     -0.0001      0.0003      0.0002
         3        -0.0106     -0.5893     -0.0045      0.6044      0.4029
         4        -0.0000     -0.0008     -0.0058      0.0066      0.0044
         5        -0.1597     -0.1616     -0.0004      0.3217      0.2145
         6        -0.0001     -0.0018     -0.0001      0.0021      0.0014
         7        -0.0001     -0.0001     -0.0038      0.0040      0.0027
         8        -0.0002     -0.0001     -0.0017      0.0019      0.0013
         9        -0.0000     -0.0002     -0.0008      0.0010      0.0006
        10        -0.2140     -0.0430     -0.0000      0.2570      0.1714

 Excitation energies and oscillator strengths:
 
 Excited State   1:      Singlet-A      5.0347 eV  246.26 nm  f=0.3780  <S**2>=0.000
      53 -> 54         0.69708
 
 Excited State   2:      Singlet-A      5.5334 eV  224.06 nm  f=0.0001  <S**2>=0.000
      49 -> 54        -0.16849
      52 -> 54         0.63591
      52 -> 56         0.18810
 This state for optimization and/or second-order correction.
 Total Energy, E(TD-HF/TD-DFT) =  -759.687511410    
 Copying the excited state density for this state as the 1-particle RhoCI density.
 
 Excited State   3:      Singlet-A      6.2726 eV  197.66 nm  f=0.4069  <S**2>=0.000
      53 -> 56         0.69206
 
 Excited State   4:      Singlet-A      6.4811 eV  191.30 nm  f=0.0043  <S**2>=0.000
      53 -> 55         0.64782
      53 -> 57         0.10002
      53 -> 58        -0.12116
      53 -> 62        -0.19555
 
 Excited State   5:      Singlet-A      6.7639 eV  183.30 nm  f=0.2203  <S**2>=0.000
      50 -> 54         0.50670
      51 -> 54        -0.45107
 
 Excited State   6:      Singlet-A      6.7900 eV  182.60 nm  f=0.0013  <S**2>=0.000
      47 -> 56         0.14550
      49 -> 54        -0.20994
      49 -> 56         0.43850
      52 -> 54        -0.13914
      52 -> 56         0.40577
 
 Excited State   7:      Singlet-A      7.1339 eV  173.80 nm  f=0.0028  <S**2>=0.000
      53 -> 57         0.62464
      53 -> 58         0.14178
      53 -> 60        -0.20251
      53 -> 62         0.10852
 
 Excited State   8:      Singlet-A      7.2536 eV  170.93 nm  f=0.0014  <S**2>=0.000
      53 -> 55         0.10836
      53 -> 57        -0.10207
      53 -> 58         0.64097
      53 -> 60         0.14039
 
 Excited State   9:      Singlet-A      7.3988 eV  167.57 nm  f=0.0010  <S**2>=0.000
      47 -> 54         0.11378
      49 -> 54         0.61117
      49 -> 56         0.13383
      52 -> 54         0.12423
      52 -> 56         0.20383
 
 Excited State  10:      Singlet-A      7.5158 eV  164.96 nm  f=0.1760  <S**2>=0.000
      50 -> 56        -0.29460
      51 -> 56         0.26971
      53 -> 59         0.53685
 SavETr:  write IOETrn=   770 NScale= 10 NData=  16 NLR=1 NState=   10 LETran=     190.
 The selected state is a singlet.
 CISGrd: IGrad=3 NXY=2 DFT=T
 CISAX will form     1 AO SS matrices at one time.
 NMat=     1 NSing=     1 JSym2X= 0.
 GePol: Maximum number of non-zero 1st derivatives   =     266
 GePol: Maximum number of non-zero 2nd derivatives   =     266
 Leave Link  914 at Thu Jan  5 15:02:55 2023, MaxMem=  1342177280 cpu:            6474.7 elap:             129.8
 (Enter /shared/gaussian/g16.b01/AVX2/g16/l1002.exe)
 Minotr:  Closed shell wavefunction.
          Computing CIS/TDA/TD derivatives.
          Using Z-Vector for PSCF gradient.
          Skipping F1 and S1 gradient terms here.
          IDoAtm=111111111111111111111111111
 NEqPCM:  Using equilibrium solvation (IEInf=0, Eps=  78.3553, EpsInf=   1.7778)
          Frozen-core window.
          Direct CPHF calculation.
          Differentiating once with respect to electric field.
                with respect to dipole field.
          Differentiating once with respect to nuclear coordinates.
          Requested convergence is 1.0D-10 RMS, and 1.0D-09 maximum.
          NewPWx=F KeepS1=T KeepF1=T KeepIn=T MapXYZ=F SortEE=F KeepMc=T.
 Two-electron integral symmetry used by symmetrizing perturbed Fock matrices.
          MDV=    1342177280 using IRadAn=       5.
          Solving linear equations separately, MaxMat=     350.
          There are     1 degrees of freedom in the 1st order CPHF.  IDoFFX=0 NUNeed=     1.
 FoFJK:  IHMeth= 1 ICntrl=       0 DoSepK=T KAlg= 0 I1Cent=           0 FoldK=F
 IRaf=         1 NMat=       1 IRICut=       1 DoRegI=T DoRafI=F ISym2E=-1 IDoP0=0 IntGTp=1.
 FoFCou: FMM=F IPFlag=           0 FMFlag=      100000 FMFlg1=           0
         NFxFlg=           0 DoJE=T BraDBF=F KetDBF=F FulRan=T
         wScrn=  0.000000 ICntrl=       500 IOpCl=  0 I1Cent=           0 NGrid=           0
         NMat0=    1 NMatS0=      1 NMatT0=    0 NMatD0=    1 NMtDS0=    0 NMtDT0=    0
 Petite list used in FoFCou.
 LinEq1:  Iter=  0 NonCon=     1 RMS=8.53D-03 Max=3.10D-01 NDo=     1
 AX will form     1 AO Fock derivatives at one time.
 LinEq1:  Iter=  1 NonCon=     1 RMS=2.09D-03 Max=5.49D-02 NDo=     1
 LinEq1:  Iter=  2 NonCon=     1 RMS=1.44D-03 Max=7.67D-02 NDo=     1
 LinEq1:  Iter=  3 NonCon=     1 RMS=5.53D-04 Max=1.79D-02 NDo=     1
 LinEq1:  Iter=  4 NonCon=     1 RMS=3.38D-04 Max=1.23D-02 NDo=     1
 LinEq1:  Iter=  5 NonCon=     1 RMS=1.67D-04 Max=9.06D-03 NDo=     1
 LinEq1:  Iter=  6 NonCon=     1 RMS=9.31D-05 Max=2.91D-03 NDo=     1
 LinEq1:  Iter=  7 NonCon=     1 RMS=4.03D-05 Max=1.81D-03 NDo=     1
 LinEq1:  Iter=  8 NonCon=     1 RMS=1.81D-05 Max=5.54D-04 NDo=     1
 LinEq1:  Iter=  9 NonCon=     1 RMS=6.96D-06 Max=2.79D-04 NDo=     1
 LinEq1:  Iter= 10 NonCon=     1 RMS=3.80D-06 Max=1.15D-04 NDo=     1
 LinEq1:  Iter= 11 NonCon=     1 RMS=1.39D-06 Max=4.61D-05 NDo=     1
 LinEq1:  Iter= 12 NonCon=     1 RMS=6.61D-07 Max=2.08D-05 NDo=     1
 LinEq1:  Iter= 13 NonCon=     1 RMS=2.53D-07 Max=5.42D-06 NDo=     1
 LinEq1:  Iter= 14 NonCon=     1 RMS=9.27D-08 Max=2.46D-06 NDo=     1
 LinEq1:  Iter= 15 NonCon=     1 RMS=4.81D-08 Max=1.06D-06 NDo=     1
 LinEq1:  Iter= 16 NonCon=     1 RMS=1.34D-08 Max=1.83D-07 NDo=     1
 LinEq1:  Iter= 17 NonCon=     1 RMS=6.80D-09 Max=1.31D-07 NDo=     1
 LinEq1:  Iter= 18 NonCon=     1 RMS=2.12D-09 Max=4.04D-08 NDo=     1
 LinEq1:  Iter= 19 NonCon=     1 RMS=1.27D-09 Max=2.92D-08 NDo=     1
 LinEq1:  Iter= 20 NonCon=     1 RMS=4.32D-10 Max=1.50D-08 NDo=     1
 LinEq1:  Iter= 21 NonCon=     1 RMS=1.35D-10 Max=3.22D-09 NDo=     1
 LinEq1:  Iter= 22 NonCon=     1 RMS=7.23D-11 Max=2.09D-09 NDo=     1
 LinEq1:  Iter= 23 NonCon=     0 RMS=2.55D-11 Max=8.19D-10 NDo=     1
 Linear equations converged to 1.000D-10 1.000D-09 after    23 iterations.
          There are     1 degrees of freedom in the 1st order CPHF.  IDoFFX=0 NUNeed=     1.
 End of Minotr F.D. properties file   721 does not exist.
 End of Minotr F.D. properties file   722 does not exist.
 End of Minotr F.D. properties file   788 does not exist.
 Leave Link 1002 at Thu Jan  5 15:03:45 2023, MaxMem=  1342177280 cpu:            2473.0 elap:              49.9
 (Enter /shared/gaussian/g16.b01/AVX2/g16/l1101.exe)
 Using compressed Sx but separate Hx and Fx, NAtomX=    27.
 Will process     28 centers per pass.
 Leave Link 1101 at Thu Jan  5 15:03:45 2023, MaxMem=  1342177280 cpu:              33.1 elap:               0.7
 (Enter /shared/gaussian/g16.b01/AVX2/g16/l1102.exe)
 Use density number 6.
 Symmetrizing basis deriv contribution to polar:
 IMax=3 JMax=2 DiffMx= 0.00D+00
 Leave Link 1102 at Thu Jan  5 15:03:46 2023, MaxMem=  1342177280 cpu:               1.7 elap:               0.1
 (Enter /shared/gaussian/g16.b01/AVX2/g16/l1110.exe)
 Forming Gx(P) for the SCF density, NAtomX=    27.
 Integral derivatives from FoFJK, PRISM(SPDF).
 Do as many integral derivatives as possible in FoFJK.
 G2DrvN: MDV=    1342174984.
 G2DrvN: will do    28 centers at a time, making    1 passes.
 Calling FoFCou, ICntrl=  3107 FMM=F I1Cent=   0 AccDes= 0.00D+00.
 FoFJK:  IHMeth= 1 ICntrl=    3107 DoSepK=T KAlg= 0 I1Cent=           0 FoldK=F
 IRaf=         1 NMat=       1 IRICut=       1 DoRegI=T DoRafI=F ISym2E= 0 IDoP0=0 IntGTp=1.
 FoFCou: FMM=F IPFlag=           0 FMFlag=      100000 FMFlg1=           0
         NFxFlg=           0 DoJE=F BraDBF=F KetDBF=F FulRan=T
         wScrn=  0.000000 ICntrl=      3507 IOpCl=  0 I1Cent=           0 NGrid=           0
         NMat0=    1 NMatS0=      1 NMatT0=    0 NMatD0=    1 NMtDS0=    0 NMtDT0=    0
 Symmetry not used in FoFCou.
 NEqPCM:  Using equilibrium solvation (IEInf=0, Eps=  78.3553, EpsInf=   1.7778)
 G2PCM: DoFxE=T DoFxN=T DoGrad=T DoDP/DQ/DG/TGxP=FFFF NFrqRd=   0 IEInf=0 SqF1=F DoCFld=F IF1Alg=4.
 Forming Gx(P) for generalized density number  6 NAtomX=    27.
 Integral derivatives from FoFJK, PRISM(SPDF).
 Do as many integral derivatives as possible in FoFJK.
 G2DrvN: MDV=    1342174984.
 G2DrvN: will do    28 centers at a time, making    1 passes.
 Calling FoFCou, ICntrl=  3107 FMM=F I1Cent=   0 AccDes= 0.00D+00.
 NEqPCM:  Using equilibrium solvation (IEInf=0, Eps=  78.3553, EpsInf=   1.7778)
 G2PCM: DoFxE=T DoFxN=F DoGrad=F DoDP/DQ/DG/TGxP=FFFF NFrqRd=   0 IEInf=0 SqF1=F DoCFld=F IF1Alg=4.
 Forming Gx(T) for CIS/TDA/TD state  2 NAtomX=    27.
 Integral derivatives from FoFJK, PRISM(SPDF).
 Do as many integral derivatives as possible in FoFJK.
 G2DrvN: MDV=    1342174984.
 G2DrvN: will do    28 centers at a time, making    1 passes.
 Calling FoFCou, ICntrl=  3107 FMM=F I1Cent=   0 AccDes= 0.00D+00.
 NEqPCM:  Using equilibrium solvation (IEInf=0, Eps=  78.3553, EpsInf=   1.7778)
 G2PCM: DoFxE=T DoFxN=F DoGrad=F DoDP/DQ/DG/TGxP=FFFF NFrqRd=   0 IEInf=0 SqF1=T DoCFld=F IF1Alg=4.
 End of G2Drv F.D. properties file   721 does not exist.
 End of G2Drv F.D. properties file   722 does not exist.
 End of G2Drv F.D. properties file   788 does not exist.
 Leave Link 1110 at Thu Jan  5 15:04:49 2023, MaxMem=  1342177280 cpu:            3186.8 elap:              64.0
 (Enter /shared/gaussian/g16.b01/AVX2/g16/l1002.exe)
 Minotr:  Closed shell wavefunction.
          IDoAtm=111111111111111111111111111
 NEqPCM:  Using equilibrium solvation (IEInf=0, Eps=  78.3553, EpsInf=   1.7778)
          Frozen-core window.
          Direct CPHF calculation.
          Differentiating once with respect to electric field.
                with respect to dipole field.
          Differentiating once with respect to nuclear coordinates.
          Requested convergence is 1.0D-08 RMS, and 1.0D-07 maximum.
          Secondary convergence is 1.0D-12 RMS, and 1.0D-12 maximum.
          NewPWx=T KeepS1=T KeepF1=T KeepIn=T MapXYZ=F SortEE=F KeepMc=T.
         8369 words used for storage of precomputed grid.
 Two-electron integrals replicated using symmetry.
          MDV=    1342177280 using IRadAn=       1.
          Solving linear equations simultaneously, MaxMat=     350.
 FoF2E skips out because all densities are zero.
 CalDSu exits because no D1Ps are significant.
 FoFJK:  IHMeth= 1 ICntrl=       0 DoSepK=T KAlg= 0 I1Cent=           0 FoldK=F
 IRaf=         1 NMat=      81 IRICut=       1 DoRegI=T DoRafI=F ISym2E= 2 IDoP0=3 IntGTp=3.
          There are    84 degrees of freedom in the 1st order CPHF.  IDoFFX=6 NUNeed=    84.
     81 vectors produced by pass  0 Test12= 2.00D-14 1.19D-09 XBig12= 7.41D+01 5.27D+00.
 AX will form    81 AO Fock derivatives at one time.
     81 vectors produced by pass  1 Test12= 2.00D-14 1.19D-09 XBig12= 9.97D+00 4.21D-01.
     81 vectors produced by pass  2 Test12= 2.00D-14 1.19D-09 XBig12= 2.17D-01 5.63D-02.
     81 vectors produced by pass  3 Test12= 2.00D-14 1.19D-09 XBig12= 1.60D-03 3.52D-03.
     81 vectors produced by pass  4 Test12= 2.00D-14 1.19D-09 XBig12= 8.11D-06 2.28D-04.
     81 vectors produced by pass  5 Test12= 2.00D-14 1.19D-09 XBig12= 3.72D-08 1.49D-05.
     63 vectors produced by pass  6 Test12= 2.00D-14 1.19D-09 XBig12= 1.66D-10 9.93D-07.
     13 vectors produced by pass  7 Test12= 2.00D-14 1.19D-09 XBig12= 6.30D-13 9.29D-08.
[...]
 0.00000575,-0.00000305,0.00003185,-0.00000526,-0.00003256,0.00005218,0
 .00000701,0.15165454,-0.11167485,-0.07055738,0.00039655,0.00008029,0.0
 0007144,0.00003929,-0.00002054,-0.00000548,0.00119594,-0.00797744,-0.0
 0025203,-0.15218281,0.12033281,-0.00097332,-0.00077654,-0.00025731,0.0
 0045471,0.00001574,0.00002168,-0.00028224,-0.00021918,-0.00005029,-0.0
 0004825,0.00013832,0.00002213,-0.00008542,-0.00012762,-0.00012685,0.00
 013311,-0.00002866,0.00002490,0.00172884,0.00226788,0.00131826,-0.0002
 8031,-0.00024060,0.00005233,0.00002516,-0.00004491,0.00001215,0.000002
 29,-0.00002259,0.00000120,0.00013332,0.00057462,0.00007137,0.00003035,
 -0.00001958,0.00002481,-0.00000816,-0.00000859,-0.00000126,0.00000526,
 0.00000239,-0.00000928,-0.00001213,0.00000167,0.00000180,0.05660218,-0
 .05303507,-0.07679980,0.00061330,0.00016101,0.00000210,-0.00005579,0.0
 0000476,-0.00000363,-0.00115862,-0.00156697,0.00157014,-0.08883430,0.0
 6799935,0.09214836,-0.00125298,-0.00115153,0.00034251,0.00045493,-0.00
 039172,-0.00000178,-0.00020974,-0.00002231,-0.00004668,-0.00003894,0.0
 0003428,0.00001138,0.00001205,-0.00006832,0.00002015,0.00005373,0.0001
 1433,0.00000866,0.00129519,0.00151163,-0.00215546,-0.00014048,0.000176
 63,0.00007026,0.00001801,-0.00003219,-0.00001967,-0.00000113,-0.000006
 27,-0.00000807,-0.00008283,0.00004055,-0.00001595,0.00000099,-0.000004
 63,0.00000089,0.00000077,-0.00000488,-0.00000100,0.00000435,-0.0000006
 7,-0.00000108,-0.00000436,-0.00000640,-0.00000148,-0.05890592,-0.02556
 193,-0.11371390,0.00012275,-0.00008493,-0.00009461,-0.00003247,0.00000
 897,0.00000667,-0.00004285,-0.00022975,0.00002882,0.00941107,0.0097293
 6,0.03440941,0.05126261,-0.00080659,-0.00040670,0.00028501,-0.00012513
 ,-0.00024236,0.00007505,0.00000208,0.00002943,-0.00002318,-0.00001421,
 0.00004209,0.00001797,-0.00003851,-0.00003379,0.00005052,0.00017208,0.
 00003400,-0.00009752,0.00034080,-0.00030885,-0.00190500,0.00006131,0.0
 0007239,-0.00001128,-0.00001375,-0.00000266,-0.00001988,0.00000053,-0.
 00000029,-0.00001257,-0.00006065,-0.00001327,0.00001571,0.00001450,-0.
 00000139,0.00000306,-0.00000173,-0.00000192,-0.00000191,0.00000083,0.0
 0000408,0.00000056,-0.00000267,0.00000370,0.00000038,-0.00836338,-0.06
 164568,-0.14239743,-0.00009591,0.00000856,-0.00000447,0.00001177,-0.00
 000187,0.00000364,-0.00006107,0.00012705,-0.00016531,-0.00697345,-0.00
 601254,-0.02033698,0.01470625,0.06798565,0.00175755,0.00114824,0.00016
 368,-0.00070935,0.00031029,-0.00000004,0.00032046,0.00005032,0.0000251
 9,0.00008792,0.00002555,0.00001526,-0.00005730,0.00000090,0.00002309,-
 0.00027357,-0.00033010,-0.00008665,-0.00230889,-0.00201175,-0.00018646
 ,0.00024523,-0.00016306,-0.00003207,-0.00004124,0.00004307,0.00000492,
 0.00000427,0.00000412,-0.00000737,0.00015896,0.00008341,0.00001320,0.0
 0000655,-0.00000513,0.00000420,-0.00000662,0.00000583,-0.00000081,-0.0
 0000383,0.00000640,-0.00000059,0.00000549,0.00001179,0.00000218,-0.073
 76422,-0.16033275,-0.45511005,-0.00012095,-0.00001660,0.00000322,0.000
 06079,-0.00001237,-0.00000333,0.00008065,-0.00029157,0.00001908,-0.006
 26221,-0.00265046,-0.01279280,0.08235213,0.16305821,0.46867415,0.00235
 672,-0.00003796,0.00017055,-0.00496319,0.00603435,0.00108423,-0.000200
 38,-0.00252083,-0.00044612,-0.00047107,0.00040324,-0.00015116,0.000058
 97,0.00000392,0.00004000,0.00024474,-0.00047704,-0.00004294,-0.0012726
 6,-0.00151925,-0.00005127,0.00037202,-0.01132272,0.00267255,0.00029028
 ,0.00001533,0.00007837,0.00002230,-0.00010968,-0.00000549,0.00000070,0
 .00022478,0.00001881,0.00007114,0.00003810,0.00000509,0.00002026,-0.00
 005315,0.00000473,0.00001345,-0.00005715,-0.00001220,-0.00001194,-0.00
 001569,-0.00000439,-0.00724212,0.00693844,-0.00408844,-0.23725416,-0.2
 2139481,0.09479613,-0.00043970,-0.00000923,0.00001358,-0.00011484,-0.0
 0031987,0.00001188,0.00165230,-0.00077304,-0.00269485,-0.00073866,0.00
 111409,0.00052600,0.61514607,0.00148880,-0.00067100,0.00039617,-0.0038
 8888,0.00766533,0.00082154,-0.00075312,-0.00288919,-0.00056895,-0.0006
 3798,0.00035562,-0.00016794,0.00027089,0.00003031,0.00001018,0.0002116
 9,-0.00020627,-0.00003615,-0.00007291,0.00116043,-0.00049883,-0.004317
 77,-0.01184506,0.00376457,0.00040646,-0.00004151,0.00008028,0.00001940
 ,-0.00012894,-0.00000999,-0.00012060,0.00014512,0.00002475,0.00002672,
 0.00004499,0.00001949,0.00003508,-0.00006625,0.00000652,0.00002389,-0.
 00006974,-0.00001445,-0.00001768,-0.00004383,-0.00000698,0.00587513,-0
 .00157650,0.00253998,-0.17905826,-0.24312548,0.10916878,-0.00066975,0.
 00004285,-0.00000754,-0.00021574,0.00004913,0.00000400,-0.00054245,0.0
 0058000,0.00163530,0.00087292,-0.00093865,0.00000712,0.05842630,0.3553
 8117,-0.00049577,0.00027944,0.00002601,0.00202393,-0.00221570,-0.00013
 322,0.00004656,0.00108658,0.00002759,0.00033146,-0.00007129,0.00000747
 ,-0.00016197,-0.00006135,0.00002484,-0.00014996,0.00015928,-0.00001216
 ,-0.00031307,-0.00064511,-0.00017074,0.00156586,0.00513845,0.00086464,
 -0.00014128,-0.00000138,-0.00001934,-0.00000902,0.00005029,0.00000065,
 0.00011857,-0.00006211,0.00001198,-0.00000214,-0.00001717,-0.00001220,
 -0.00000944,0.00002241,0.00000025,-0.00001338,0.00002389,0.00000462,0.
 00000601,0.00001626,0.00000070,-0.00570426,0.00411934,0.00103130,0.070
 36324,0.10306731,-0.05710148,0.00024818,0.00000388,0.00004697,0.000084
 79,-0.00009913,-0.00001938,0.00066570,-0.00029052,-0.00187719,0.000184
 77,-0.00005338,0.00048544,0.05054837,-0.18753384,0.12478243,-0.0014556
 5,-0.00046951,-0.00024070,0.00115775,-0.00256563,-0.00006957,-0.000021
 87,0.00072733,0.00012536,0.00012626,-0.00011634,0.00001910,-0.00001584
 ,-0.00001227,-0.00000601,0.00003703,0.00035614,0.00004985,0.00183525,0
 .00106372,0.00043800,0.00101437,0.00246830,-0.00042759,-0.00006991,-0.
 00002124,-0.00001821,-0.00000638,0.00003128,-0.00000221,-0.00006301,-0
 .00016363,-0.00002407,-0.00002032,-0.00001001,0.00000116,-0.00000480,0
 .00001177,-0.00000261,-0.00000188,0.00001607,0.00000340,0.00000296,0.0
 0000098,0.00000111,-0.00114433,-0.00286547,0.00094387,-0.03146972,0.01
 292803,-0.01185036,0.00014140,0.00001420,-0.00000064,0.00002378,0.0003
 6246,0.00001307,-0.00280097,0.00151596,0.00241205,0.00059289,-0.001010
 19,-0.00132887,-0.36741554,0.12129299,-0.11837012,0.39874593,0.0009279
 7,0.00066758,-0.00006778,-0.00158476,0.00025618,0.00023845,0.00039655,
 -0.00010756,-0.00003498,0.00007104,0.00007372,-0.00002915,-0.00016703,
 0.00001776,0.00002803,0.00010477,-0.00032085,-0.00001756,-0.00115888,-
 0.00306424,0.00057377,0.00083804,-0.00142025,0.00045480,-0.00004703,0.
 00005365,0.00001247,0.00000566,-0.00000078,0.00000847,0.00013234,0.000
 08765,-0.00000229,0.00004161,0.00000467,-0.00000622,-0.00000539,0.0000
 0607,-0.00000061,-0.00000845,0.00000263,0.00000253,0.00000275,0.000021
 26,0.00000077,-0.00094209,-0.00136288,-0.00009804,-0.02980297,0.011225
 54,-0.00946198,0.00008721,-0.00001085,0.00000245,0.00004811,-0.0002521
 1,0.00003901,0.00148454,-0.00175775,-0.00272635,-0.00150576,0.00190720
 ,0.00022902,0.16447494,-0.10318939,0.07647831,-0.13242983,0.09607215,-
 0.00073139,-0.00041040,-0.00017919,0.00073752,-0.00055280,-0.00005042,
 -0.00016481,0.00016274,0.00005193,-0.00001514,-0.00004530,0.00000984,0
 .00006793,-0.00000595,-0.00000863,0.00000361,0.00020413,0.00003614,0.0
 0101027,0.00152408,0.00039472,-0.00022255,0.00100420,-0.00040834,0.000
 00243,-0.00002605,-0.00000295,-0.00000392,0.00000567,0.00000007,-0.000
 09290,-0.00008695,-0.00001931,-0.00002101,-0.00000329,0.00000239,0.000
 00154,0.00000108,-0.00000114,0.00000493,0.00000031,-0.00000004,-0.0000
 0033,-0.00000850,0.00000042,0.00277736,-0.00362915,-0.00565227,0.01239
 759,-0.00366040,0.00533342,-0.00000584,0.00000874,-0.00000263,-0.00002
 394,0.00026524,0.00001021,-0.00151563,0.00060576,0.00342721,-0.0011146
 5,0.00118775,-0.00182646,-0.14287357,0.07061462,-0.06820837,0.12885750
 ,-0.06606283,0.06764143,0.00540241,-0.00282923,0.00001537,-0.00836918,
 0.02014480,0.00110281,-0.00275305,-0.00419181,-0.00031904,-0.00162378,
 0.00053829,-0.00000665,0.00083697,0.00051889,0.00007064,0.00150698,-0.
 00177820,-0.00012203,-0.00069539,-0.00057681,-0.00014071,0.01051418,-0
 .01179856,-0.00030970,0.00359287,0.00073191,0.00014531,0.00002470,-0.0
 0020945,-0.00001421,-0.00067568,0.00065236,0.00003109,0.00008003,0.000
 12158,0.00000680,0.00005741,-0.00014656,0.00000685,0.00005850,-0.00014
 695,-0.00002951,-0.00003677,-0.00008405,-0.00001033,0.00039322,0.00035
 511,0.00010017,-0.00084026,-0.00148315,0.00054933,-0.31001186,-0.19270
 102,-0.04196412,-0.00048958,-0.00017870,0.00006618,-0.00010628,-0.0000
 3719,0.00006222,0.00003172,-0.00001379,-0.00006499,0.00063318,0.000833
 27,-0.00029950,-0.00017833,-0.00006901,-0.00001391,0.32349988,-0.00069
 972,-0.00103906,-0.00015256,0.00634366,0.00129657,0.00031882,-0.000605
 89,0.00116540,0.00030588,-0.00034698,-0.00130439,-0.00013779,-0.000169
 96,0.00027291,0.00001446,0.00015529,0.00054129,0.00004822,0.00004425,0
 .00016146,0.00002428,-0.00421531,-0.00595937,-0.00012642,0.00125989,-0
 .00686196,-0.00105616,0.00002060,0.00006847,-0.00000219,-0.00024551,-0
 .00014919,-0.00003294,-0.00008777,-0.00006428,-0.00000416,-0.00003360,
 0.00004765,-0.00000476,-0.00003053,0.00005045,0.00000959,0.00001787,0.
 00001409,0.00000338,-0.00007000,-0.00009459,-0.00001936,-0.00012107,0.
 00024422,-0.00009700,-0.22343759,-0.17266601,-0.05857384,0.00013229,0.
 00006137,-0.00001428,0.00001807,0.00001721,-0.00000823,-0.00000877,0.0
 0000283,0.00001273,-0.00004532,-0.00019787,0.00008473,0.00002812,0.000
 03074,-0.00001259,0.20956186,0.17878065,0.00023348,-0.00011291,0.00021
 960,-0.00010268,0.00054104,0.00041967,0.00021871,-0.00031570,-0.000400
 88,0.00002137,0.00007627,-0.00028545,0.00003224,-0.00002113,0.00008327
 ,0.00000824,-0.00004586,0.00024483,-0.00001478,-0.00002500,-0.00005434
 ,-0.00005571,-0.00041712,-0.00436147,-0.00048120,0.00019441,0.00138826
 ,-0.00000485,-0.00001292,0.00008320,-0.00002551,0.00000728,0.00006077,
 0.00001707,0.00000875,-0.00007308,0.00002179,0.00001405,0.00001414,-0.
 00001840,-0.00003299,0.00000572,-0.00000173,-0.00000260,-0.00001075,0.
 00002311,0.00002126,-0.00000421,0.00013086,-0.00000726,0.00014299,-0.0
 7709104,-0.07862468,-0.05031570,-0.00002205,-0.00000231,-0.00000873,-0
 .00000450,-0.00000396,0.00000449,-0.00000289,-0.00000267,-0.00000126,-
 0.00001120,0.00003705,-0.00007046,-0.00000473,-0.00001319,-0.00000417,
 0.04877561,0.05951701,0.04885063,-0.00003301,0.00012392,0.00005790,0.0
 0001056,-0.00076324,-0.00000049,0.00078553,0.00028115,-0.00002248,-0.0
 0008204,0.00015101,-0.00001033,0.00007718,-0.00005046,-0.00000971,-0.0
 0008898,0.00006703,0.00000521,0.00001363,-0.00002512,-0.00000567,-0.00
 145224,-0.00006315,-0.00065538,-0.00173743,0.00069704,0.00027892,-0.00
 000045,-0.00000691,0.00000348,0.00003812,-0.00004064,0.00001528,0.0000
 0250,-0.00000065,0.00000448,-0.00000039,-0.00000342,-0.00000068,0.0000
 0040,-0.00000118,-0.00000042,-0.00000042,0.00000014,0.00000028,0.00000
 021,0.00000068,-0.00000269,0.00000807,0.00004451,-0.00000670,-0.254483
 41,0.05069707,0.22063683,0.00000458,0.00000262,-0.00000397,-0.00000171
 ,0.00000064,0.00000009,-0.00000186,-0.00000075,0.00000104,-0.00000671,
 -0.00002212,0.00000309,0.00000362,0.00000068,0.00000056,-0.02115433,0.
 01261012,0.02834345,0.27810172,0.00005931,0.00026839,0.00001959,-0.000
 27582,-0.00168668,-0.00022296,0.00181127,-0.00121492,0.00056785,0.0003
 4625,0.00050946,0.00011603,-0.00002346,-0.00023759,-0.00001165,-0.0001
 9207,0.00012555,0.00001343,0.00001950,-0.00003281,-0.00002662,-0.00145
 700,0.00097039,-0.00030125,-0.00117037,0.00190412,-0.00165639,-0.00001
 973,-0.00002904,-0.00001542,0.00016008,-0.00004209,0.00001415,0.000040
 51,0.00001595,-0.00000732,0.00000907,-0.00001053,0.00000163,0.00001001
 ,-0.00001589,-0.00000237,-0.00000453,-0.00000006,-0.00000111,0.0000117
 3,0.00001284,0.00000404,0.00001776,0.00003471,0.00002246,0.08168905,-0
 .05261644,-0.10876633,-0.00000286,-0.00000207,-0.00000437,-0.00000389,
 0.00000033,0.00000104,0.00000089,0.00000121,-0.00000157,0.00000010,-0.
 00000921,-0.00001017,0.00000114,-0.00000266,-0.00000010,-0.01733218,0.
 00562222,0.01921839,-0.06369579,0.04643642,-0.00028639,-0.00006616,-0.
 00001838,0.00072893,-0.00038336,0.00000445,-0.00117224,0.00106385,0.00
 006602,-0.00010176,-0.00018597,-0.00003875,-0.00002578,0.00001408,0.00
 002248,-0.00012219,0.00024986,0.00002308,0.00002769,0.00004033,0.00001
 058,-0.00163245,0.00001169,-0.00012239,0.00098902,-0.00130334,-0.00008
 053,0.00001279,0.00001539,-0.00000001,0.00004015,-0.00008801,-0.000007
 45,-0.00002300,-0.00001560,-0.00000766,-0.00000904,0.00001339,-0.00000
 084,-0.00000847,0.00001126,0.00000275,0.00000486,0.00000456,0.00000168
 ,-0.00002174,-0.00002624,-0.00000948,0.00004214,0.00006905,-0.00001869
 ,0.25777171,-0.09033637,-0.26768149,0.00004683,0.00001901,-0.00000606,
 0.00000434,0.00000600,-0.00000231,-0.00000370,-0.00000042,0.00000558,-
 0.00003308,-0.00004094,0.00001154,0.00000920,0.00000564,0.00000122,-0.
 00757680,-0.00011028,0.00407487,-0.24863399,0.09104733,0.26376560,-0.0
 0040854,-0.00142893,-0.00051228,0.00152024,-0.00026280,-0.00005728,-0.
 00058943,0.00046731,0.00005418,-0.00076270,-0.00106599,-0.00021146,0.0
 0197729,0.00113220,0.00118394,-0.00136887,0.00053426,0.00047759,0.0016
 2040,0.00095037,-0.00016801,-0.00084151,0.00070298,0.00005599,0.000219
 35,-0.00006729,-0.00001469,-0.00004423,0.00011908,-0.00013725,-0.00819
 511,-0.00852579,-0.00021818,-0.00040550,0.00014262,-0.00003606,0.00007
 167,-0.00003507,0.00002489,0.00002655,-0.00008739,-0.00001324,0.000080
 23,-0.00015721,-0.00000685,-0.00973328,0.01457752,0.00812899,0.0001284
 6,-0.00015084,0.00006874,-0.00027387,0.00006170,0.00001379,-0.20936724
 ,-0.22229063,0.00587415,-0.00264640,-0.00955486,-0.00397593,-0.0018288
 4,0.00105523,-0.00067913,-0.00074952,0.00054552,-0.00049869,0.00098379
 ,-0.00092093,0.00091426,0.00029788,-0.00007429,0.00001501,-0.00000213,
 0.00000228,-0.00002676,0.33549508,0.00125998,0.00010129,-0.00021884,-0
 .00029304,0.00005028,-0.00007821,0.00017803,0.00068719,0.00013620,-0.0
 0071478,-0.00088088,-0.00015660,0.00131777,0.00094581,0.00100224,-0.00
 022385,-0.00142482,0.00079670,-0.00158111,-0.00157290,-0.00032549,-0.0
 0016175,0.00039949,-0.00000977,0.00009648,0.00002908,-0.00000595,-0.00
 003085,0.00009915,-0.00015964,-0.01047160,-0.00528416,-0.00034793,-0.0
 0020083,0.00012989,0.00003234,0.00003528,-0.00003492,0.00000711,0.0000
 2298,-0.00003944,-0.00000907,0.00004806,-0.00008648,0.00000377,0.01432
 669,-0.00995398,-0.00929887,-0.00027637,-0.00016028,0.00004027,-0.0000
 9767,0.00003123,0.00000773,-0.20476083,-0.25989991,-0.01955042,-0.0059
 0032,0.00006514,0.00864638,0.00196896,-0.00069755,0.00066870,0.0008322
 9,-0.00038167,0.00043631,-0.00098489,0.00088996,-0.00089812,0.00010242
 ,-0.00003675,0.00000478,-0.00000262,-0.00000123,-0.00001291,0.21971024
 ,0.31042244,0.00038131,0.00078108,-0.00016325,-0.00075459,-0.00002181,
 -0.00018599,0.00026861,0.00003152,0.00004958,0.00007700,0.00027083,-0.
 00011064,-0.00061266,-0.00028768,0.00055439,0.00070613,-0.00142724,0.0
 0046582,-0.00077295,-0.00047681,-0.00031327,0.00038596,-0.00024699,0.0
 0005883,-0.00006705,0.00003392,-0.00000769,0.00002743,-0.00003329,-0.0
 0004657,0.00100183,0.00279380,0.00021596,0.00020043,-0.00003673,-0.000
 03454,0.00001204,0.00004864,0.00001940,-0.00004689,-0.00000432,0.00001
 554,-0.00003085,0.00005978,-0.00000002,0.00938832,-0.00927340,0.000277
 57,-0.00008458,0.00003815,-0.00003759,0.00010511,-0.00002019,-0.000000
 25,0.03532390,0.01568434,-0.04582350,-0.00257593,0.00639510,-0.0054551
 6,-0.00018407,0.00026162,0.00060876,0.00048775,-0.00030123,0.00034352,
 -0.00060483,0.00051415,-0.00060507,-0.00012207,0.00002842,-0.00000733,
 0.00000230,0.00000106,0.00000908,-0.22225261,0.03878990,0.48838117,0.0
 0008725,-0.00014876,0.00002054,0.00003383,0.00008486,0.00004971,0.0000
 0404,-0.00009960,-0.00001142,0.00003406,0.00005051,0.00002903,0.000065
 14,0.00002042,-0.00013221,-0.00044989,0.00028717,-0.00001478,0.0000183
 4,-0.00004501,0.00006368,-0.00001683,-0.00001638,-0.00002357,-0.000009
 18,0.00000280,0.00000217,-0.00000256,0.00000452,0.00000489,0.00035523,
 -0.00033216,-0.00005313,-0.00002793,-0.00000490,0.00001764,-0.00000490
 ,-0.00000590,-0.00000512,0.00000854,0.00000627,-0.00000425,0.00000805,
 -0.00000572,0.,-0.00007575,0.00078687,-0.00020436,-0.00000581,-0.00000
 256,0.00000787,0.00000062,-0.00000207,-0.00000069,-0.01170723,0.004304
 63,0.02763894,-0.00166878,0.00002425,0.00179705,0.00002000,0.00010230,
 0.00001414,-0.00000167,-0.00001180,-0.00002193,0.00000351,0.00002592,0
 .00002409,0.00000456,0.00000030,0.00000031,-0.00000100,-0.00000126,-0.
 00000026,-0.10520378,-0.01419869,0.17974097,0.11853213,0.00009429,-0.0
 0009765,0.00004887,0.00006961,0.00010367,0.00001938,0.00000490,0.00000
 272,0.00000080,0.00000653,-0.00004497,0.00004082,0.00016229,0.00001312
 ,-0.00014772,-0.00025063,0.00062425,-0.00006150,-0.00029046,-0.0002253
 4,-0.00005108,-0.00004727,0.00004420,-0.00001214,0.00000680,0.00000329
 ,-0.00000145,-0.00000235,0.00000634,0.00000760,-0.00047768,-0.00158452
 ,0.00011436,-0.00005132,0.00001443,0.00000314,-0.00000037,-0.00000580,
 -0.00000216,0.00000733,-0.00000329,-0.00000252,0.00000997,-0.00001207,
 0.00000052,0.00303695,-0.00272308,-0.00021238,-0.00003763,-0.00002869,
 0.00000684,-0.00001244,0.00000096,0.00000177,-0.01366991,0.00265107,0.
 03159127,-0.00226453,0.00408448,-0.00228659,-0.00008474,0.00008935,0.0
 0014965,0.00014988,-0.00007440,0.00009466,-0.00016950,0.00017256,-0.00
 018191,0.00001615,-0.00000408,0.00000002,-0.00000056,-0.00000037,-0.00
 000185,0.00462070,-0.03339596,-0.05360260,0.00917399,0.03038978,-0.000
 26723,-0.00010734,-0.00007774,0.00038204,-0.00007111,-0.00003977,-0.00
 013903,0.00013461,0.00000298,-0.00006864,-0.00024972,-0.00006091,0.000
 30559,0.00015372,0.00013680,-0.00005742,0.00060221,0.00014904,0.000165
 79,-0.00002625,-0.00003615,-0.00019707,0.00020809,0.00002084,0.0000522
 1,-0.00001687,0.00000381,-0.00001161,0.00001934,0.00001951,-0.00009978
 ,-0.00108331,-0.00014672,-0.00008777,0.00002777,-0.00004589,0.00002163
 ,0.00000726,0.00000506,-0.00000111,-0.00002535,0.00000796,0.00000764,-
 0.00003014,-0.00000446,-0.00138202,0.00139526,0.00083849,-0.00000595,-
 0.00004662,0.00001980,-0.00005679,0.00001375,0.00000043,-0.00313902,-0
 .00379612,-0.00231577,0.00149730,-0.00214051,-0.00132707,-0.00007068,0
 .00007253,-0.00000008,-0.00004334,0.00005650,-0.00004542,0.00007687,-0
 .00006689,0.00005999,0.00006121,-0.00001496,0.00000537,-0.00000041,0.0
 0000059,-0.00000488,0.21199686,-0.01950061,-0.43820875,-0.20893929,0.0
 2448418,0.44104353\\0.00813093,0.03812852,0.00420838,-0.00762839,-0.01
 920989,-0.00254591,-0.00435580,0.03151489,0.00249260,-0.00882620,-0.02
 274276,-0.00196104,0.02343897,0.00487902,0.00081641,-0.11536782,-0.026
 78307,-0.00725001,-0.00369884,-0.00009608,0.00050428,0.00358230,0.0044
 1418,0.00068915,0.00354402,-0.00025762,-0.00000374,0.00275594,-0.00129
 617,0.00013538,0.09076831,-0.00759859,0.00507668,0.00198596,-0.0010467
 7,0.00002288,-0.00016269,-0.00067155,0.00053065,-0.00004949,-0.0005410
 1,-0.00070290,0.00000468,0.00049669,0.00003046,0.00096697,-0.00156090,
 -0.00060504,-0.00018313,-0.00042630,0.00009234,-0.00111694,0.00090399,
 0.00001887,0.01427151,0.00477050,-0.00449705,-0.00065797,0.00245091,0.
 00064547,0.00003523,-0.00006393,0.00020731,0.00033621,0.00019754,0.000
 01804,-0.00028726,0.00011074,-0.00014869,0.00015654,-0.00051435,0.0000
 2919,0.00008501,0.00018632,-0.00005412,-0.00702049,-0.00432899,0.00336
 373,-0.00070756,-0.00091532,-0.00111331\\\@


 WE STILL HAVE JUDGEMENT HERE,
 THAT WE TEACH BUT BLOODY INSTRUCTIONS,
 WHICH, BEING TAUGHT,
 RETURN TO PLAGUE THE INVENTOR.
           MACBETH ACT I, SCENE VII
 Job cpu time:       0 days  8 hours 35 minutes  7.3 seconds.
 Elapsed time:       0 days  0 hours 10 minutes 20.9 seconds.
 File lengths (MBytes):  RWF=   1475 Int=      0 D2E=      0 Chk=     62 Scr=      1
 Normal termination of Gaussian 16 at Thu Jan  5 15:10:43 2023.
