 Entering Gaussian System, Link 0=/shared/gaussian/g16.b01/AVX2/g16/g16
 Initial command:
 /shared/gaussian/g16.b01/AVX2/g16/l1.exe "/scratch/marlene/SCRGAU.151017.Thymine6311-freq-solv-ES5/Gau-83365.inp" -scrdir="/scratch/marlene/SCRGAU.151017.Thymine6311-freq-solv-ES5/"
 Entering Link 1 = /shared/gaussian/g16.b01/AVX2/g16/l1.exe PID=     83366.
  
 Copyright (c) 1988-2017, Gaussian, Inc.  All Rights Reserved.
  
 This is part of the Gaussian(R) 16 program.  It is based on
 the Gaussian(R) 09 system (copyright 2009, Gaussian, Inc.),
 the Gaussian(R) 03 system (copyright 2003, Gaussian, Inc.),
 the Gaussian(R) 98 system (copyright 1998, Gaussian, Inc.),
 the Gaussian(R) 94 system (copyright 1995, Gaussian, Inc.),
 the Gaussian 92(TM) system (copyright 1992, Gaussian, Inc.),
 the Gaussian 90(TM) system (copyright 1990, Gaussian, Inc.),
 the Gaussian 88(TM) system (copyright 1988, Gaussian, Inc.),
 the Gaussian 86(TM) system (copyright 1986, Carnegie Mellon
 University), and the Gaussian 82(TM) system (copyright 1983,
 Carnegie Mellon University). Gaussian is a federally registered
 trademark of Gaussian, Inc.
  
 This software contains proprietary and confidential information,
 including trade secrets, belonging to Gaussian, Inc.
  
 This software is provided under written license and may be
 used, copied, transmitted, or stored only in accord with that
 written license.
  
 The following legend is applicable only to US Government
 contracts under FAR:
  
                    RESTRICTED RIGHTS LEGEND
  
 Use, reproduction and disclosure by the US Government is
 subject to restrictions as set forth in subparagraphs (a)
 and (c) of the Commercial Computer Software - Restricted
 Rights clause in FAR 52.227-19.
  
 Gaussian, Inc.
 340 Quinnipiac St., Bldg. 40, Wallingford CT 06492
  
  
 ---------------------------------------------------------------
 Warning -- This program may not be used in any manner that
 competes with the business of Gaussian, Inc. or will provide
 assistance to any competitor of Gaussian, Inc.  The licensee
 of this program is prohibited from giving any competitor of
 Gaussian, Inc. access to this program.  By using this program,
 the user acknowledges that Gaussian, Inc. is engaged in the
 business of creating and licensing software in the field of
 computational chemistry and represents and warrants to the
 licensee that it is not a competitor of Gaussian, Inc. and that
 it will not use this program in any manner prohibited above.
 ---------------------------------------------------------------
  

 Cite this work as:
 Gaussian 16, Revision B.01,
 M. J. Frisch, G. W. Trucks, H. B. Schlegel, G. E. Scuseria, 
 M. A. Robb, J. R. Cheeseman, G. Scalmani, V. Barone, 
 G. A. Petersson, H. Nakatsuji, X. Li, M. Caricato, A. V. Marenich, 
 J. Bloino, B. G. Janesko, R. Gomperts, B. Mennucci, H. P. Hratchian, 
 J. V. Ortiz, A. F. Izmaylov, J. L. Sonnenberg, D. Williams-Young, 
 F. Ding, F. Lipparini, F. Egidi, J. Goings, B. Peng, A. Petrone, 
 T. Henderson, D. Ranasinghe, V. G. Zakrzewski, J. Gao, N. Rega, 
 G. Zheng, W. Liang, M. Hada, M. Ehara, K. Toyota, R. Fukuda, 
 J. Hasegawa, M. Ishida, T. Nakajima, Y. Honda, O. Kitao, H. Nakai, 
 T. Vreven, K. Throssell, J. A. Montgomery, Jr., J. E. Peralta, 
 F. Ogliaro, M. J. Bearpark, J. J. Heyd, E. N. Brothers, K. N. Kudin, 
 V. N. Staroverov, T. A. Keith, R. Kobayashi, J. Normand, 
 K. Raghavachari, A. P. Rendell, J. C. Burant, S. S. Iyengar, 
 J. Tomasi, M. Cossi, J. M. Millam, M. Klene, C. Adamo, R. Cammi, 
 J. W. Ochterski, R. L. Martin, K. Morokuma, O. Farkas, 
 J. B. Foresman, and D. J. Fox, Gaussian, Inc., Wallingford CT, 2016.
 
 ******************************************
 Gaussian 16:  ES64L-G16RevB.01 20-Dec-2017
                 5-Jan-2023 
 ******************************************
 %nprocshared=50
 Will use up to   50 processors via shared memory.
 %mem=10GB
 %chk=Thymine6311-freq-solv-ES5.chk
 ----------------------------------------------------------------------
 #p freq td=(nstates=10,root=5) cam-b3lyp/6-311+g(d,p) scrf=(solvent=wa
 ter,pcm) symm=loose
 ----------------------------------------------------------------------
 1/10=4,30=1,38=1/1,3;
 2/12=2,17=4,18=3,40=1/2;
 3/5=4,6=6,7=111,11=9,25=1,30=1,70=2201,71=2,72=1,74=-40,140=1/1,2,3,8;
 4//1;
 5/5=2,38=5,53=1,98=1/2;
 8/6=1,10=2,107=5,108=10/1;
 9/8=5,15=3,41=10,42=1,70=2/14;
 10/5=2004,20=4,28=5/2;
 11/6=1,8=1,12=-5,16=1,42=3/1,2,10;
 10/6=3,21=1,28=5/2,14;
 6/7=2,8=2,9=2,10=2/1;
 7/8=1,10=1,12=6,13=8,14=5,25=1,44=2/1,2,3,16;
 1/10=4,30=1/3;
 99//99;
 Leave Link    1 at Thu Jan  5 15:10:17 2023, MaxMem=  1342177280 cpu:               2.2 elap:               0.0
 (Enter /shared/gaussian/g16.b01/AVX2/g16/l101.exe)
 --------------------
 Thymine solvated ES5
 --------------------
 Symbolic Z-matrix:
 Charge =  0 Multiplicity = 1
 N                    -0.23117  -0.03514  -0.18765 
 C                     1.09637  -0.362    -0.13809 
 N                     1.94349   0.69304   0.00033 
 C                     1.50712   1.98844   0.09405 
 C                     0.20304   2.31854   0.06272 
 C                    -0.75796   1.242    -0.07949 
 H                    -0.88878  -0.81343  -0.33326 
 O                     1.49365  -1.52662  -0.21212 
 H                     2.93788   0.46073   0.03201 
 H                     2.28981   2.72781   0.1993 
 O                    -1.97581   1.4124   -0.10838 
 C                    -0.29892   3.72357   0.17089 
 H                    -0.87752   4.00063  -0.71272 
 H                    -0.95505   3.8378    1.03618 
 H                     0.53193   4.42132   0.27266 
 O                    -2.15696  -2.18939  -0.54554 
 H                     0.53502  -3.05163   0.41374 
 O                     4.21976  -1.0042    0.05234 
 H                    -3.35011   0.32965   0.14121 
 H                    -2.95662  -1.6966   -0.24879 
 H                    -2.33746  -2.49334  -1.44134 
 O                    -0.11605  -3.71234   0.69918 
 H                    -0.9538   -3.34536   0.37493 
 H                     3.43773  -1.55482  -0.12499 
 H                     4.87117  -1.22696  -0.61977 
 O                    -4.00852  -0.39484   0.18979 
 H                    -4.41687  -0.34438   1.0594 
 
 ITRead=  0  0  0  0  0  0  0  0  0  0  0  0  0  0  0  0  0  0  0  0
 ITRead=  0  0  0  0  0  0  0
 MicOpt= -1 -1 -1 -1 -1 -1 -1 -1 -1 -1 -1 -1 -1 -1 -1 -1 -1 -1 -1 -1
 MicOpt= -1 -1 -1 -1 -1 -1 -1
 NAtoms=     27 NQM=       27 NQMF=       0 NMMI=      0 NMMIF=      0
                NMic=       0 NMicF=      0.
                    Isotopes and Nuclear Properties:
 (Nuclear quadrupole moments (NQMom) in fm**2, nuclear magnetic moments (NMagM)
  in nuclear magnetons)

  Atom         1           2           3           4           5           6           7           8           9          10
 IAtWgt=          14          12          14          12          12          12           1          16           1           1
 AtmWgt=  14.0030740  12.0000000  14.0030740  12.0000000  12.0000000  12.0000000   1.0078250  15.9949146   1.0078250   1.0078250
 NucSpn=           2           0           2           0           0           0           1           0           1           1
 AtZEff=  -0.0000000  -0.0000000  -0.0000000  -0.0000000  -0.0000000  -0.0000000  -0.0000000  -0.0000000  -0.0000000  -0.0000000
 NQMom=    2.0440000   0.0000000   2.0440000   0.0000000   0.0000000   0.0000000   0.0000000   0.0000000   0.0000000   0.0000000
 NMagM=    0.4037610   0.0000000   0.4037610   0.0000000   0.0000000   0.0000000   2.7928460   0.0000000   2.7928460   2.7928460
 AtZNuc=   7.0000000   6.0000000   7.0000000   6.0000000   6.0000000   6.0000000   1.0000000   8.0000000   1.0000000   1.0000000

  Atom        11          12          13          14          15          16          17          18          19          20
 IAtWgt=          16          12           1           1           1          16           1          16           1           1
 AtmWgt=  15.9949146  12.0000000   1.0078250   1.0078250   1.0078250  15.9949146   1.0078250  15.9949146   1.0078250   1.0078250
 NucSpn=           0           0           1           1           1           0           1           0           1           1
 AtZEff=  -0.0000000  -0.0000000  -0.0000000  -0.0000000  -0.0000000  -0.0000000  -0.0000000  -0.0000000  -0.0000000  -0.0000000
 NQMom=    0.0000000   0.0000000   0.0000000   0.0000000   0.0000000   0.0000000   0.0000000   0.0000000   0.0000000   0.0000000
 NMagM=    0.0000000   0.0000000   2.7928460   2.7928460   2.7928460   0.0000000   2.7928460   0.0000000   2.7928460   2.7928460
 AtZNuc=   8.0000000   6.0000000   1.0000000   1.0000000   1.0000000   8.0000000   1.0000000   8.0000000   1.0000000   1.0000000

  Atom        21          22          23          24          25          26          27
 IAtWgt=           1          16           1           1           1          16           1
 AtmWgt=   1.0078250  15.9949146   1.0078250   1.0078250   1.0078250  15.9949146   1.0078250
 NucSpn=           1           0           1           1           1           0           1
 AtZEff=  -0.0000000  -0.0000000  -0.0000000  -0.0000000  -0.0000000  -0.0000000  -0.0000000
 NQMom=    0.0000000   0.0000000   0.0000000   0.0000000   0.0000000   0.0000000   0.0000000
 NMagM=    2.7928460   0.0000000   2.7928460   2.7928460   2.7928460   0.0000000   2.7928460
 AtZNuc=   1.0000000   8.0000000   1.0000000   1.0000000   1.0000000   8.0000000   1.0000000
 Leave Link  101 at Thu Jan  5 15:10:17 2023, MaxMem=  1342177280 cpu:              10.2 elap:               0.2
 (Enter /shared/gaussian/g16.b01/AVX2/g16/l103.exe)

 GradGradGradGradGradGradGradGradGradGradGradGradGradGradGradGradGradGrad
 Berny optimization.
 Initialization pass.
 Trust Radius=3.00D-01 FncErr=1.00D-07 GrdErr=1.00D-07 EigMax=2.50D+02 EigMin=1.00D-04
 Number of steps in this run=      2 maximum allowed number of steps=      2.
 GradGradGradGradGradGradGradGradGradGradGradGradGradGradGradGradGradGrad

 Leave Link  103 at Thu Jan  5 15:10:17 2023, MaxMem=  1342177280 cpu:               0.9 elap:               0.0
 (Enter /shared/gaussian/g16.b01/AVX2/g16/l202.exe)
                          Input orientation:                          
 ---------------------------------------------------------------------
 Center     Atomic      Atomic             Coordinates (Angstroms)
 Number     Number       Type             X           Y           Z
 ---------------------------------------------------------------------
      1          7           0       -0.231165   -0.035141   -0.187654
      2          6           0        1.096368   -0.361997   -0.138091
      3          7           0        1.943485    0.693041    0.000329
      4          6           0        1.507124    1.988439    0.094046
      5          6           0        0.203040    2.318540    0.062719
      6          6           0       -0.757961    1.241995   -0.079486
      7          1           0       -0.888783   -0.813428   -0.333259
      8          8           0        1.493654   -1.526624   -0.212117
      9          1           0        2.937877    0.460730    0.032007
     10          1           0        2.289814    2.727806    0.199297
     11          8           0       -1.975809    1.412395   -0.108376
     12          6           0       -0.298918    3.723573    0.170889
     13          1           0       -0.877521    4.000626   -0.712721
     14          1           0       -0.955053    3.837803    1.036180
     15          1           0        0.531929    4.421320    0.272664
     16          8           0       -2.156963   -2.189392   -0.545540
     17          1           0        0.535018   -3.051632    0.413739
     18          8           0        4.219759   -1.004202    0.052340
     19          1           0       -3.350109    0.329652    0.141206
     20          1           0       -2.956623   -1.696599   -0.248786
     21          1           0       -2.337462   -2.493339   -1.441344
     22          8           0       -0.116054   -3.712336    0.699184
     23          1           0       -0.953795   -3.345363    0.374927
     24          1           0        3.437732   -1.554817   -0.124989
     25          1           0        4.871171   -1.226960   -0.619765
     26          8           0       -4.008523   -0.394843    0.189792
     27          1           0       -4.416871   -0.344381    1.059404
 ---------------------------------------------------------------------
                    Distance matrix (angstroms):
                    1          2          3          4          5
     1  N    0.000000
     2  C    1.368077   0.000000
     3  N    2.301019   1.360100   0.000000
     4  C    2.682514   2.397323   1.370128   0.000000
     5  C    2.406457   2.832603   2.382286   1.345579   0.000000
     6  C    1.385746   2.452501   2.757813   2.391214   1.450067
     7  H    1.029268   2.045166   3.225286   3.711256   3.340374
     8  O    2.280377   1.232750   2.274729   3.528397   4.065280
     9  H    3.215115   2.024097   1.021659   2.093991   3.306317
    10  H    3.760178   3.329418   2.073596   1.081825   2.130910
    11  O    2.268354   3.547904   3.986245   3.536046   2.365958
    12  C    3.776384   4.328299   3.773803   2.505670   1.495921
    13  H    4.120787   4.822750   4.405296   3.222779   2.144372
    14  H    4.125709   4.819290   4.400459   3.220261   2.144054
    15  H    4.544695   4.833987   3.995838   2.627131   2.138674
    16  O    2.911628   3.753605   5.041832   5.593646   5.124553
    17  H    3.169847   2.802457   4.022097   5.142909   5.391862
    18  O    4.561513   3.194411   2.839853   4.039310   5.212941
    19  H    3.157378   4.508608   5.307922   5.132885   4.072678
    20  H    3.192538   4.268507   5.457426   5.798455   5.118774
    21  H    3.471450   4.246443   5.527924   6.101196   5.645399
    22  O    3.784375   3.660023   4.912987   5.958165   6.072757
    23  H    3.434569   3.656067   4.984302   5.880855   5.789261
    24  H    3.971668   2.627732   2.702100   4.041025   5.049887
    25  H    5.257469   3.902475   3.555596   4.707986   5.901508
    26  O    3.813172   5.115515   6.053576   6.009290   5.011572
    27  H    4.378461   5.641818   6.530851   6.439541   5.424768
                    6          7          8          9         10
     6  C    0.000000
     7  H    2.075158   0.000000
     8  O    3.571080   2.489845   0.000000
     9  H    3.779157   4.049719   2.468796   0.000000
    10  H    3.402100   4.788260   4.347793   2.363812   0.000000
    11  O    1.230051   2.487265   4.548161   5.006964   4.474428
    12  C    2.536067   4.602878   5.560987   4.598073   2.773787
    13  H    2.832901   4.828999   6.035194   5.257637   3.533250
    14  H    2.832274   4.849093   6.027561   5.250513   3.530103
    15  H    3.449048   5.457852   6.044664   4.640342   2.442034
    16  O    3.734813   1.883247   3.725243   5.771837   6.671390
    17  H    4.511131   2.755861   1.906916   4.272720   6.043773
    18  O    5.462644   5.126625   2.788281   1.946705   4.204066
    19  H    2.756865   2.754973   5.199292   6.290300   6.128886
    20  H    3.673978   2.250131   4.453673   6.283156   6.877590
    21  H    4.278107   2.479642   4.137993   6.223061   7.166850
    22  O    5.056062   3.172809   2.863384   5.214029   6.893005
    23  H    4.613967   2.629914   3.105228   5.454269   6.887324
    24  H    5.042625   4.394515   1.946234   2.082530   4.445642
    25  H    6.170475   5.781882   3.415201   2.647778   4.793166
    26  O    3.649370   3.190858   5.631732   7.000670   7.029941
    27  H    4.147443   3.821900   6.160257   7.469676   7.426826
                   11         12         13         14         15
    11  O    0.000000
    12  C    2.869058   0.000000
    13  H    2.875832   1.091928   0.000000
    14  H    2.869591   1.091920   1.758174   0.000000
    15  H    3.935425   1.089732   1.770457   1.770470   0.000000
    16  O    3.632740   6.239291   6.323072   6.346141   7.183391
    17  H    5.148242   6.830654   7.280008   7.076161   7.474284
    18  O    6.652130   6.540975   7.184420   7.154833   6.563911
    19  H    1.767293   4.563918   4.507653   4.341013   5.641742
    20  H    3.263059   6.051263   6.082456   6.023871   7.061929
    21  H    4.142747   6.738320   6.695812   6.937762   7.680087
    22  O    5.511235   7.456895   7.878013   7.604083   8.170567
    23  H    4.890231   7.102137   7.426463   7.213538   7.908173
    24  H    6.173415   6.473909   7.059021   7.051611   6.657029
    25  H    7.355872   7.201578   7.770699   7.895496   7.178337
    26  O    2.736227   5.542822   5.471549   5.287281   6.619516
    27  H    3.226260   5.856214   5.877628   5.429124   6.915308
                   16         17         18         19         20
    16  O    0.000000
    17  H    2.985035   0.000000
    18  O    6.513426   4.230827   0.000000
    19  H    2.870679   5.157671   7.687000   0.000000
    20  H    0.985071   3.803500   7.215993   2.100623   0.000000
    21  H    0.963031   3.464703   6.888089   3.391047   1.562162
    22  O    2.834432   0.970517   5.152831   5.206546   3.609803
    23  H    1.905555   1.518008   5.687773   4.393482   2.668101
    24  H    5.646252   3.310050   0.972722   7.049601   6.397125
    25  H    7.094114   4.816615   0.962125   8.401879   7.850640
    26  O    2.681304   5.268059   8.251960   0.980185   1.730148
    27  H    3.329729   5.680431   8.720144   1.560573   2.381634
                   21         22         23         24         25
    21  H    0.000000
    22  O    3.316997   0.000000
    23  H    2.437072   0.970372   0.000000
    24  H    5.997206   4.238342   4.768803   0.000000
    25  H    7.364991   5.726180   6.277521   1.551464   0.000000
    26  O    3.139544   5.139704   4.251024   7.542635   8.955265
    27  H    3.898167   5.474478   4.633281   8.035094   9.479783
                   26         27
    26  O    0.000000
    27  H    0.962039   0.000000
 Stoichiometry    C5H14N2O6
 Framework group  C1[X(C5H14N2O6)]
 Deg. of freedom    75
 Full point group                 C1      NOp   1
 Largest Abelian subgroup         C1      NOp   1
 Largest concise Abelian subgroup C1      NOp   1
                         Standard orientation:                         
 ---------------------------------------------------------------------
 Center     Atomic      Atomic             Coordinates (Angstroms)
 Number     Number       Type             X           Y           Z
 ---------------------------------------------------------------------
      1          7           0       -0.231165   -0.035141   -0.187654
      2          6           0        1.096368   -0.361997   -0.138091
      3          7           0        1.943485    0.693041    0.000329
      4          6           0        1.507124    1.988439    0.094046
      5          6           0        0.203040    2.318540    0.062719
      6          6           0       -0.757961    1.241995   -0.079486
      7          1           0       -0.888783   -0.813428   -0.333259
      8          8           0        1.493654   -1.526624   -0.212117
      9          1           0        2.937877    0.460731    0.032007
     10          1           0        2.289814    2.727806    0.199297
     11          8           0       -1.975809    1.412395   -0.108376
     12          6           0       -0.298919    3.723573    0.170889
     13          1           0       -0.877522    4.000626   -0.712721
     14          1           0       -0.955054    3.837803    1.036180
     15          1           0        0.531928    4.421320    0.272664
     16          8           0       -2.156963   -2.189392   -0.545540
     17          1           0        0.535019   -3.051632    0.413739
     18          8           0        4.219759   -1.004201    0.052340
     19          1           0       -3.350109    0.329651    0.141206
     20          1           0       -2.956623   -1.696600   -0.248786
     21          1           0       -2.337461   -2.493339   -1.441344
     22          8           0       -0.116053   -3.712336    0.699184
     23          1           0       -0.953794   -3.345363    0.374927
     24          1           0        3.437732   -1.554816   -0.124989
     25          1           0        4.871171   -1.226959   -0.619765
     26          8           0       -4.008523   -0.394844    0.189792
     27          1           0       -4.416871   -0.344382    1.059404
 ---------------------------------------------------------------------
 Rotational constants (GHZ):           0.6284335           0.5383142           0.2971763
 Leave Link  202 at Thu Jan  5 15:10:17 2023, MaxMem=  1342177280 cpu:               0.2 elap:               0.0
 (Enter /shared/gaussian/g16.b01/AVX2/g16/l301.exe)
 Standard basis: 6-311+G(d,p) (5D, 7F)
 Ernie: Thresh=  0.10000D-02 Tol=  0.10000D-05 Strict=F.
 There are   383 symmetry adapted cartesian basis functions of A   symmetry.
 There are   370 symmetry adapted basis functions of A   symmetry.
   370 basis functions,   580 primitive gaussians,   383 cartesian basis functions
    53 alpha electrons       53 beta electrons
       nuclear repulsion energy       873.8248456000 Hartrees.
 IExCor=20419 DFT=T Ex+Corr=CAM-B3LYP ExCW=0 ScaHFX=  1.000000
 ScaDFX=  1.000000  1.000000  1.000000  0.810000 ScalE2=  1.000000  1.000000
 IRadAn=      5 IRanWt=     -1 IRanGd=            0 ICorTp=0 IEmpDi=  4
 HFx  wShort=  0.000000 wLong=  0.330000 cFull=  0.190000 cShort=  0.000000 cLong=  0.460000
 DFx  wShort=  0.000000 wLong=  0.330000 cFull=  0.190000 cShort=  0.000000 cLong=  0.460000
 NAtoms=   27 NActive=   27 NUniq=   27 SFac= 1.00D+00 NAtFMM=   60 NAOKFM=F Big=F
 Integral buffers will be    131072 words long.
 Raffenetti 1 integral format.
 Two-electron integral symmetry is turned on.
 Force inversion solution in PCM.
 ------------------------------------------------------------------------------
 Polarizable Continuum Model (PCM)
 =================================
 Model                : PCM.
 Atomic radii         : UFF (Universal Force Field).
 Polarization charges : Total charges.
 Charge compensation  : None.
 Solution method      : Matrix inversion.
 Cavity type          : Scaled VdW (van der Waals Surface) (Alpha=1.100).
 Cavity algorithm     : GePol (No added spheres)
                        Default sphere list used, NSphG=   27.
                        Lebedev-Laikov grids with approx.  5.0 points / Ang**2.
                        Smoothing algorithm: York/Karplus (Gamma=1.0000).
                        Polarization charges: spherical gaussians, with
                                              point-specific exponents (IZeta= 3).
                        Self-potential: point-specific (ISelfS= 7).
                        Self-field    : sphere-specific E.n sum rule (ISelfD= 2).
 1st derivatives      : Analytical E(r).r(x)/FMM algorithm (CHGder, D1EAlg=3).
                        Cavity 1st derivative terms included.
 2nd derivatives      : Analytical E(r).r(xy)/FMM algorithm (CHGder, D2EAlg=3).
                        Cavity 2nd derivative terms included.
 Solvent              : Water, Eps=  78.355300 Eps(inf)=   1.777849
 ------------------------------------------------------------------------------
 GePol: Number of generator spheres                  =      27
 GePol: Total number of spheres                      =      27
 GePol: Number of exposed spheres                    =      27 (100.00%)
 GePol: Number of points                             =    2281
 GePol: Average weight of points                     =       0.12
 GePol: Minimum weight of points                     =   0.27D-09
 GePol: Maximum weight of points                     =    0.20577
 GePol: Number of points with low weight             =     148
 GePol: Fraction of low-weight points (<1% of avg)   =       6.49%
 GePol: Cavity surface area                          =    280.953 Ang**2
 GePol: Cavity volume                                =    278.556 Ang**3
 Leave Link  301 at Thu Jan  5 15:10:17 2023, MaxMem=  1342177280 cpu:               2.8 elap:               0.1
 (Enter /shared/gaussian/g16.b01/AVX2/g16/l302.exe)
 NPDir=0 NMtPBC=     1 NCelOv=     1 NCel=       1 NClECP=     1 NCelD=      1
         NCelK=      1 NCelE2=     1 NClLst=     1 CellRange=     0.0.
 One-electron integrals computed using PRISM.
 One-electron integral symmetry used in STVInt
 NBasis=   370 RedAO= T EigKep=  5.61D-06  NBF=   370
 NBsUse=   370 1.00D-06 EigRej= -1.00D+00 NBFU=   370
 Precomputing XC quadrature grid using
 IXCGrd= 4 IRadAn=           5 IRanWt=          -1 IRanGd=           0 AccXCQ= 0.00D+00.
 Generated NRdTot=       0 NPtTot=           0 NUsed=           0 NTot=          32
 NSgBfM=   381   381   381   381   381 MxSgAt=    27 MxSgA2=    27.
 Leave Link  302 at Thu Jan  5 15:10:18 2023, MaxMem=  1342177280 cpu:              17.9 elap:               0.4
 (Enter /shared/gaussian/g16.b01/AVX2/g16/l303.exe)
 DipDrv:  MaxL=1.
 Leave Link  303 at Thu Jan  5 15:10:18 2023, MaxMem=  1342177280 cpu:               2.4 elap:               0.1
 (Enter /shared/gaussian/g16.b01/AVX2/g16/l308.exe)
 Leave Link  308 at Thu Jan  5 15:10:18 2023, MaxMem=  1342177280 cpu:               4.1 elap:               0.1
 (Enter /shared/gaussian/g16.b01/AVX2/g16/l401.exe)
 ExpMin= 4.38D-02 ExpMax= 8.59D+03 ExpMxC= 1.30D+03 IAcc=3 IRadAn=         5 AccDes= 0.00D+00
 Harris functional with IExCor=20419 and IRadAn=       5 diagonalized for initial guess.
 HarFok:  IExCor=20419 AccDes= 0.00D+00 IRadAn=         5 IDoV= 1 UseB2=F ITyADJ=14
 ICtDFT=  3500011 ScaDFX=  1.000000  1.000000  1.000000  1.000000
 FoFCou: FMM=F IPFlag=           0 FMFlag=      100000 FMFlg1=           0
         NFxFlg=           0 DoJE=T BraDBF=F KetDBF=T FulRan=T
         wScrn=  0.000000 ICntrl=       500 IOpCl=  0 I1Cent=   200000004 NGrid=           0
         NMat0=    1 NMatS0=      1 NMatT0=    0 NMatD0=    1 NMtDS0=    0 NMtDT0=    0
 Petite list used in FoFCou.
 Harris En= -733.390347824989    
 JPrj=0 DoOrth=F DoCkMO=F.
 Leave Link  401 at Thu Jan  5 15:10:19 2023, MaxMem=  1342177280 cpu:              26.0 elap:               0.6
 (Enter /shared/gaussian/g16.b01/AVX2/g16/l502.exe)
 Integral symmetry usage will be decided dynamically.
 Closed shell SCF:
 Using DIIS extrapolation, IDIIS=  1040.
 NGot=  1342177280 LenX=  1341860947 LenY=  1341713817
 Requested convergence on RMS density matrix=1.00D-08 within 128 cycles.
 Requested convergence on MAX density matrix=1.00D-06.
 Requested convergence on             energy=1.00D-06.
 No special actions if energy rises.
 Fock matrices will be formed incrementally for  20 cycles.

 Cycle   1  Pass 1  IDiag  1:
 FoFJK:  IHMeth= 1 ICntrl=       0 DoSepK=T KAlg= 0 I1Cent=           0 FoldK=F
 IRaf=         1 NMat=       1 IRICut=       1 DoRegI=T DoRafI=F ISym2E= 0 IDoP0=0 IntGTp=1.
 FoFCou: FMM=F IPFlag=           0 FMFlag=      100000 FMFlg1=           0
         NFxFlg=           0 DoJE=T BraDBF=F KetDBF=F FulRan=T
         wScrn=  0.000000 ICntrl=       500 IOpCl=  0 I1Cent=           0 NGrid=           0
         NMat0=    1 NMatS0=      1 NMatT0=    0 NMatD0=    1 NMtDS0=    0 NMtDT0=    0
 Symmetry not used in FoFCou.
 Inv3:  Mode=1 IEnd=    15608883.
 Iteration    1 A*A^-1 deviation from unit magnitude is 3.33D-15 for   1630.
 Iteration    1 A*A^-1 deviation from orthogonality  is 1.84D-15 for   1357    643.
 Iteration    1 A^-1*A deviation from unit magnitude is 3.33D-15 for   1630.
 Iteration    1 A^-1*A deviation from orthogonality  is 9.33D-14 for   1458   1357.
 E= -759.733593705006    
 DIIS: error= 5.40D-02 at cycle   1 NSaved=   1.
 NSaved= 1 IEnMin= 1 EnMin= -759.733593705006     IErMin= 1 ErrMin= 5.40D-02
 ErrMax= 5.40D-02  0.00D+00 EMaxC= 1.00D-01 BMatC= 1.14D+00 BMatP= 1.14D+00
 IDIUse=3 WtCom= 4.60D-01 WtEn= 5.40D-01
 Coeff-Com:  0.100D+01
 Coeff-En:   0.100D+01
 Coeff:      0.100D+01
 Gap=     0.309 Goal=   None    Shift=    0.000
 GapD=    0.309 DampG=1.000 DampE=0.500 DampFc=0.5000 IDamp=-1.
 Damping current iteration by 5.00D-01
 RMSDP=8.48D-03 MaxDP=1.43D+00              OVMax= 1.29D-01

 Cycle   2  Pass 1  IDiag  1:
 RMSU=  2.89D-03    CP:  8.66D-01
 E= -759.810862702380     Delta-E=       -0.077268997374 Rises=F Damp=T
 DIIS: error= 2.57D-02 at cycle   2 NSaved=   2.
 NSaved= 2 IEnMin= 2 EnMin= -759.810862702380     IErMin= 2 ErrMin= 2.57D-02
 ErrMax= 2.57D-02  0.00D+00 EMaxC= 1.00D-01 BMatC= 2.38D-01 BMatP= 1.14D+00
 IDIUse=3 WtCom= 7.43D-01 WtEn= 2.57D-01
 Coeff-Com: -0.682D+00 0.168D+01
 Coeff-En:   0.000D+00 0.100D+01
 Coeff:     -0.507D+00 0.151D+01
 Gap=     0.336 Goal=   None    Shift=    0.000
 RMSDP=4.19D-03 MaxDP=5.56D-01 DE=-7.73D-02 OVMax= 1.08D-01

 Cycle   3  Pass 1  IDiag  1:
 RMSU=  1.84D-03    CP:  7.26D-01  1.66D+00
 E= -759.859758548452     Delta-E=       -0.048895846071 Rises=F Damp=F
 DIIS: error= 1.06D-02 at cycle   3 NSaved=   3.
 NSaved= 3 IEnMin= 3 EnMin= -759.859758548452     IErMin= 3 ErrMin= 1.06D-02
 ErrMax= 1.06D-02  0.00D+00 EMaxC= 1.00D-01 BMatC= 3.67D-02 BMatP= 2.38D-01
 IDIUse=3 WtCom= 8.94D-01 WtEn= 1.06D-01
 Coeff-Com: -0.356D+00 0.767D+00 0.588D+00
 Coeff-En:   0.000D+00 0.000D+00 0.100D+01
 Coeff:     -0.318D+00 0.686D+00 0.632D+00
 Gap=     0.303 Goal=   None    Shift=    0.000
 RMSDP=1.02D-03 MaxDP=9.73D-02 DE=-4.89D-02 OVMax= 5.64D-02

 Cycle   4  Pass 1  IDiag  1:
 RMSU=  4.46D-04    CP:  7.21D-01  1.89D+00  6.61D-01
 E= -759.888183527555     Delta-E=       -0.028424979103 Rises=F Damp=F
 DIIS: error= 3.46D-03 at cycle   4 NSaved=   4.
 NSaved= 4 IEnMin= 4 EnMin= -759.888183527555     IErMin= 4 ErrMin= 3.46D-03
 ErrMax= 3.46D-03  0.00D+00 EMaxC= 1.00D-01 BMatC= 3.69D-03 BMatP= 3.67D-02
 IDIUse=3 WtCom= 9.65D-01 WtEn= 3.46D-02
 Coeff-Com: -0.170D+00 0.361D+00 0.364D+00 0.445D+00
 Coeff-En:   0.000D+00 0.000D+00 0.000D+00 0.100D+01
 Coeff:     -0.164D+00 0.348D+00 0.351D+00 0.464D+00
 Gap=     0.300 Goal=   None    Shift=    0.000
 RMSDP=3.37D-04 MaxDP=4.01D-02 DE=-2.84D-02 OVMax= 1.26D-02

 Cycle   5  Pass 1  IDiag  1:
 RMSU=  1.52D-04    CP:  7.13D-01  1.87D+00  7.56D-01  6.78D-01
 E= -759.890781028152     Delta-E=       -0.002597500597 Rises=F Damp=F
 DIIS: error= 5.77D-04 at cycle   5 NSaved=   5.
 NSaved= 5 IEnMin= 5 EnMin= -759.890781028152     IErMin= 5 ErrMin= 5.77D-04
 ErrMax= 5.77D-04  0.00D+00 EMaxC= 1.00D-01 BMatC= 7.77D-05 BMatP= 3.69D-03
 IDIUse=3 WtCom= 9.94D-01 WtEn= 5.77D-03
 Coeff-Com: -0.344D-01 0.723D-01 0.889D-01 0.185D+00 0.688D+00
 Coeff-En:   0.000D+00 0.000D+00 0.000D+00 0.000D+00 0.100D+01
 Coeff:     -0.343D-01 0.719D-01 0.884D-01 0.184D+00 0.690D+00
 Gap=     0.300 Goal=   None    Shift=    0.000
 RMSDP=8.41D-05 MaxDP=7.31D-03 DE=-2.60D-03 OVMax= 3.82D-03

 Cycle   6  Pass 1  IDiag  1:
 RMSU=  4.24D-05    CP:  7.12D-01  1.89D+00  7.66D-01  7.79D-01  9.47D-01
 E= -759.890843246610     Delta-E=       -0.000062218458 Rises=F Damp=F
 DIIS: error= 2.59D-04 at cycle   6 NSaved=   6.
 NSaved= 6 IEnMin= 6 EnMin= -759.890843246610     IErMin= 6 ErrMin= 2.59D-04
 ErrMax= 2.59D-04  0.00D+00 EMaxC= 1.00D-01 BMatC= 1.39D-05 BMatP= 7.77D-05
 IDIUse=3 WtCom= 9.97D-01 WtEn= 2.59D-03
 Coeff-Com:  0.130D-01-0.279D-01-0.204D-01 0.961D-03 0.331D+00 0.703D+00
 Coeff-En:   0.000D+00 0.000D+00 0.000D+00 0.000D+00 0.000D+00 0.100D+01
 Coeff:      0.129D-01-0.278D-01-0.204D-01 0.959D-03 0.331D+00 0.704D+00
 Gap=     0.300 Goal=   None    Shift=    0.000
 RMSDP=4.13D-05 MaxDP=4.75D-03 DE=-6.22D-05 OVMax= 2.03D-03

 Cycle   7  Pass 1  IDiag  1:
 RMSU=  1.54D-05    CP:  7.10D-01  1.89D+00  7.74D-01  7.90D-01  1.05D+00
                    CP:  9.48D-01
 E= -759.890858596096     Delta-E=       -0.000015349485 Rises=F Damp=F
 DIIS: error= 6.25D-05 at cycle   7 NSaved=   7.
 NSaved= 7 IEnMin= 7 EnMin= -759.890858596096     IErMin= 7 ErrMin= 6.25D-05
 ErrMax= 6.25D-05  0.00D+00 EMaxC= 1.00D-01 BMatC= 1.42D-06 BMatP= 1.39D-05
 IDIUse=1 WtCom= 1.00D+00 WtEn= 0.00D+00
 Coeff-Com:  0.898D-02-0.190D-01-0.182D-01-0.258D-01 0.505D-01 0.270D+00
 Coeff-Com:  0.733D+00
 Coeff:      0.898D-02-0.190D-01-0.182D-01-0.258D-01 0.505D-01 0.270D+00
 Coeff:      0.733D+00
 Gap=     0.300 Goal=   None    Shift=    0.000
 RMSDP=1.17D-05 MaxDP=1.30D-03 DE=-1.53D-05 OVMax= 5.88D-04

 Cycle   8  Pass 1  IDiag  1:
 RMSU=  5.29D-06    CP:  7.10D-01  1.89D+00  7.76D-01  7.94D-01  1.09D+00
                    CP:  1.02D+00  1.09D+00
 E= -759.890860482120     Delta-E=       -0.000001886024 Rises=F Damp=F
 DIIS: error= 3.66D-05 at cycle   8 NSaved=   8.
 NSaved= 8 IEnMin= 8 EnMin= -759.890860482120     IErMin= 8 ErrMin= 3.66D-05
 ErrMax= 3.66D-05  0.00D+00 EMaxC= 1.00D-01 BMatC= 2.47D-07 BMatP= 1.42D-06
 IDIUse=1 WtCom= 1.00D+00 WtEn= 0.00D+00
 Coeff-Com:  0.126D-02-0.261D-02-0.374D-02-0.130D-01-0.341D-01-0.977D-03
 Coeff-Com:  0.308D+00 0.745D+00
 Coeff:      0.126D-02-0.261D-02-0.374D-02-0.130D-01-0.341D-01-0.977D-03
 Coeff:      0.308D+00 0.745D+00
 Gap=     0.300 Goal=   None    Shift=    0.000
 RMSDP=5.52D-06 MaxDP=5.00D-04 DE=-1.89D-06 OVMax= 4.24D-04

 Cycle   9  Pass 1  IDiag  1:
 RMSU=  3.03D-06    CP:  7.10D-01  1.89D+00  7.76D-01  7.94D-01  1.11D+00
                    CP:  1.04D+00  1.25D+00  1.08D+00
 E= -759.890860832666     Delta-E=       -0.000000350547 Rises=F Damp=F
 DIIS: error= 1.50D-05 at cycle   9 NSaved=   9.
 NSaved= 9 IEnMin= 9 EnMin= -759.890860832666     IErMin= 9 ErrMin= 1.50D-05
 ErrMax= 1.50D-05  0.00D+00 EMaxC= 1.00D-01 BMatC= 3.56D-08 BMatP= 2.47D-07
 IDIUse=1 WtCom= 1.00D+00 WtEn= 0.00D+00
 Coeff-Com: -0.995D-03 0.213D-02 0.152D-02-0.162D-02-0.189D-01-0.389D-01
 Coeff-Com:  0.798D-02 0.305D+00 0.744D+00
 Coeff:     -0.995D-03 0.213D-02 0.152D-02-0.162D-02-0.189D-01-0.389D-01
 Coeff:      0.798D-02 0.305D+00 0.744D+00
 Gap=     0.300 Goal=   None    Shift=    0.000
 RMSDP=1.80D-06 MaxDP=1.76D-04 DE=-3.51D-07 OVMax= 1.80D-04

 Cycle  10  Pass 1  IDiag  1:
 RMSU=  8.45D-07    CP:  7.10D-01  1.89D+00  7.76D-01  7.93D-01  1.11D+00
                    CP:  1.05D+00  1.28D+00  1.21D+00  1.10D+00
 E= -759.890860881253     Delta-E=       -0.000000048586 Rises=F Damp=F
 DIIS: error= 4.68D-06 at cycle  10 NSaved=  10.
 NSaved=10 IEnMin=10 EnMin= -759.890860881253     IErMin=10 ErrMin= 4.68D-06
 ErrMax= 4.68D-06  0.00D+00 EMaxC= 1.00D-01 BMatC= 7.56D-09 BMatP= 3.56D-08
 IDIUse=1 WtCom= 1.00D+00 WtEn= 0.00D+00
 Coeff-Com: -0.592D-03 0.125D-02 0.117D-02 0.104D-02-0.268D-02-0.179D-01
 Coeff-Com: -0.548D-01 0.128D-01 0.366D+00 0.694D+00
 Coeff:     -0.592D-03 0.125D-02 0.117D-02 0.104D-02-0.268D-02-0.179D-01
 Coeff:     -0.548D-01 0.128D-01 0.366D+00 0.694D+00
 Gap=     0.300 Goal=   None    Shift=    0.000
 RMSDP=8.07D-07 MaxDP=5.90D-05 DE=-4.86D-08 OVMax= 5.27D-05

 Cycle  11  Pass 1  IDiag  1:
 RMSU=  3.63D-07    CP:  7.10D-01  1.89D+00  7.76D-01  7.92D-01  1.11D+00
                    CP:  1.05D+00  1.30D+00  1.24D+00  1.23D+00  9.79D-01
 E= -759.890860890391     Delta-E=       -0.000000009138 Rises=F Damp=F
 DIIS: error= 2.03D-06 at cycle  11 NSaved=  11.
 NSaved=11 IEnMin=11 EnMin= -759.890860890391     IErMin=11 ErrMin= 2.03D-06
 ErrMax= 2.03D-06  0.00D+00 EMaxC= 1.00D-01 BMatC= 3.73D-10 BMatP= 7.56D-09
 IDIUse=1 WtCom= 1.00D+00 WtEn= 0.00D+00
 Coeff-Com: -0.963D-04 0.203D-03 0.236D-03 0.446D-03 0.936D-03-0.252D-02
 Coeff-Com: -0.218D-01-0.184D-01 0.741D-01 0.214D+00 0.753D+00
 Coeff:     -0.963D-04 0.203D-03 0.236D-03 0.446D-03 0.936D-03-0.252D-02
 Coeff:     -0.218D-01-0.184D-01 0.741D-01 0.214D+00 0.753D+00
 Gap=     0.300 Goal=   None    Shift=    0.000
 RMSDP=2.13D-07 MaxDP=1.92D-05 DE=-9.14D-09 OVMax= 2.07D-05

 Cycle  12  Pass 1  IDiag  1:
 RMSU=  9.99D-08    CP:  7.10D-01  1.89D+00  7.76D-01  7.92D-01  1.11D+00
                    CP:  1.05D+00  1.31D+00  1.24D+00  1.25D+00  1.04D+00
                    CP:  1.10D+00
 E= -759.890860890951     Delta-E=       -0.000000000559 Rises=F Damp=F
 DIIS: error= 4.80D-07 at cycle  12 NSaved=  12.
 NSaved=12 IEnMin=12 EnMin= -759.890860890951     IErMin=12 ErrMin= 4.80D-07
 ErrMax= 4.80D-07  0.00D+00 EMaxC= 1.00D-01 BMatC= 1.06D-10 BMatP= 3.73D-10
 IDIUse=1 WtCom= 1.00D+00 WtEn= 0.00D+00
 Coeff-Com:  0.412D-04-0.884D-04-0.541D-04 0.753D-04 0.893D-03 0.183D-02
 Coeff-Com: -0.162D-02-0.943D-02-0.281D-01-0.396D-01 0.338D+00 0.738D+00
 Coeff:      0.412D-04-0.884D-04-0.541D-04 0.753D-04 0.893D-03 0.183D-02
 Coeff:     -0.162D-02-0.943D-02-0.281D-01-0.396D-01 0.338D+00 0.738D+00
 Gap=     0.300 Goal=   None    Shift=    0.000
 RMSDP=9.52D-08 MaxDP=7.04D-06 DE=-5.59D-10 OVMax= 6.47D-06

 Cycle  13  Pass 1  IDiag  1:
 RMSU=  3.91D-08    CP:  7.10D-01  1.89D+00  7.76D-01  7.92D-01  1.11D+00
                    CP:  1.05D+00  1.31D+00  1.25D+00  1.27D+00  1.06D+00
                    CP:  1.22D+00  1.12D+00
 E= -759.890860891106     Delta-E=       -0.000000000156 Rises=F Damp=F
 DIIS: error= 1.76D-07 at cycle  13 NSaved=  13.
 NSaved=13 IEnMin=13 EnMin= -759.890860891106     IErMin=13 ErrMin= 1.76D-07
 ErrMax= 1.76D-07  0.00D+00 EMaxC= 1.00D-01 BMatC= 4.85D-12 BMatP= 1.06D-10
 IDIUse=1 WtCom= 1.00D+00 WtEn= 0.00D+00
 Coeff-Com:  0.190D-04-0.403D-04-0.349D-04-0.250D-04 0.117D-03 0.719D-03
 Coeff-Com:  0.156D-02-0.292D-04-0.140D-01-0.322D-01 0.202D-01 0.154D+00
 Coeff-Com:  0.869D+00
 Coeff:      0.190D-04-0.403D-04-0.349D-04-0.250D-04 0.117D-03 0.719D-03
 Coeff:      0.156D-02-0.292D-04-0.140D-01-0.322D-01 0.202D-01 0.154D+00
 Coeff:      0.869D+00
 Gap=     0.300 Goal=   None    Shift=    0.000
 RMSDP=2.65D-08 MaxDP=2.01D-06 DE=-1.56D-10 OVMax= 2.34D-06

 Cycle  14  Pass 1  IDiag  1:
 RMSU=  1.44D-08    CP:  7.10D-01  1.89D+00  7.76D-01  7.92D-01  1.11D+00
                    CP:  1.05D+00  1.31D+00  1.25D+00  1.27D+00  1.07D+00
                    CP:  1.26D+00  1.17D+00  1.19D+00
 E= -759.890860891100     Delta-E=        0.000000000006 Rises=F Damp=F
 DIIS: error= 8.23D-08 at cycle  14 NSaved=  14.
 NSaved=14 IEnMin=13 EnMin= -759.890860891106     IErMin=14 ErrMin= 8.23D-08
 ErrMax= 8.23D-08  0.00D+00 EMaxC= 1.00D-01 BMatC= 1.37D-12 BMatP= 4.85D-12
 IDIUse=1 WtCom= 1.00D+00 WtEn= 0.00D+00
 Coeff-Com:  0.244D-05-0.500D-05-0.753D-05-0.214D-04-0.781D-04 0.613D-04
 Coeff-Com:  0.825D-03 0.142D-02-0.168D-02-0.732D-02-0.371D-01-0.506D-01
 Coeff-Com:  0.375D+00 0.720D+00
 Coeff:      0.244D-05-0.500D-05-0.753D-05-0.214D-04-0.781D-04 0.613D-04
 Coeff:      0.825D-03 0.142D-02-0.168D-02-0.732D-02-0.371D-01-0.506D-01
 Coeff:      0.375D+00 0.720D+00
 Gap=     0.300 Goal=   None    Shift=    0.000
 RMSDP=9.04D-09 MaxDP=6.09D-07 DE= 5.68D-12 OVMax= 8.46D-07

 Error on total polarization charges =  0.01625
 SCF Done:  E(RCAM-B3LYP) =  -759.890860891     A.U. after   14 cycles
            NFock= 14  Conv=0.90D-08     -V/T= 2.0031
 KE= 7.575792157718D+02 PE=-3.532496864760D+03 EE= 1.141201942497D+03
 Leave Link  502 at Thu Jan  5 15:10:40 2023, MaxMem=  1342177280 cpu:            1028.4 elap:              21.4
 (Enter /shared/gaussian/g16.b01/AVX2/g16/l801.exe)
 DoSCS=F DFT=T ScalE2(SS,OS)=  1.000000  1.000000
 ExpMin= 4.38D-02 ExpMax= 8.59D+03 ExpMxC= 1.30D+03 IAcc=3 IRadAn=         5 AccDes= 0.00D+00
 HarFok:  IExCor=  205 AccDes= 0.00D+00 IRadAn=         5 IDoV=-2 UseB2=F ITyADJ=14
 ICtDFT= 12500011 ScaDFX=  1.000000  1.000000  1.000000  1.000000
 Largest valence mixing into a core orbital is  4.85D-05
 Largest core mixing into a valence orbital is  1.01D-05
 Range of M.O.s used for correlation:    14   370
 NBasis=   370 NAE=    53 NBE=    53 NFC=    13 NFV=     0
 NROrb=    357 NOA=    40 NOB=    40 NVA=   317 NVB=   317

 **** Warning!!: The largest alpha MO coefficient is  0.12208706D+03

 Leave Link  801 at Thu Jan  5 15:10:40 2023, MaxMem=  1342177280 cpu:               2.7 elap:               0.1
 (Enter /shared/gaussian/g16.b01/AVX2/g16/l914.exe)
 RHF ground state
 Two-electron integrals replicated using symmetry.
 MDV=  1342177280 DFT=T DoStab=F Mixed=T DoRPA=T DoScal=F NonHer=T
 NEqPCM:  Using equilibrium solvation (IEInf=0, Eps=  78.3553, EpsInf=   1.7778)
 Making orbital integer symmetry assigments:
 Orbital symmetries:
       Occupied  (A) (A) (A) (A) (A) (A) (A) (A) (A) (A) (A) (A)
                 (A) (A) (A) (A) (A) (A) (A) (A) (A) (A) (A) (A)
                 (A) (A) (A) (A) (A) (A) (A) (A) (A) (A) (A) (A)
                 (A) (A) (A) (A) (A) (A) (A) (A) (A) (A) (A) (A)
                 (A) (A) (A) (A) (A)
       Virtual   (A) (A) (A) (A) (A) (A) (A) (A) (A) (A) (A) (A)
                 (A) (A) (A) (A) (A) (A) (A) (A) (A) (A) (A) (A)
                 (A) (A) (A) (A) (A) (A) (A) (A) (A) (A) (A) (A)
                 (A) (A) (A) (A) (A) (A) (A) (A) (A) (A) (A) (A)
                 (A) (A) (A) (A) (A) (A) (A) (A) (A) (A) (A) (A)
                 (A) (A) (A) (A) (A) (A) (A) (A) (A) (A) (A) (A)
                 (A) (A) (A) (A) (A) (A) (A) (A) (A) (A) (A) (A)
                 (A) (A) (A) (A) (A) (A) (A) (A) (A) (A) (A) (A)
                 (A) (A) (A) (A) (A) (A) (A) (A) (A) (A) (A) (A)
                 (A) (A) (A) (A) (A) (A) (A) (A) (A) (A) (A) (A)
                 (A) (A) (A) (A) (A) (A) (A) (A) (A) (A) (A) (A)
                 (A) (A) (A) (A) (A) (A) (A) (A) (A) (A) (A) (A)
                 (A) (A) (A) (A) (A) (A) (A) (A) (A) (A) (A) (A)
                 (A) (A) (A) (A) (A) (A) (A) (A) (A) (A) (A) (A)
                 (A) (A) (A) (A) (A) (A) (A) (A) (A) (A) (A) (A)
                 (A) (A) (A) (A) (A) (A) (A) (A) (A) (A) (A) (A)
                 (A) (A) (A) (A) (A) (A) (A) (A) (A) (A) (A) (A)
                 (A) (A) (A) (A) (A) (A) (A) (A) (A) (A) (A) (A)
                 (A) (A) (A) (A) (A) (A) (A) (A) (A) (A) (A) (A)
                 (A) (A) (A) (A) (A) (A) (A) (A) (A) (A) (A) (A)
                 (A) (A) (A) (A) (A) (A) (A) (A) (A) (A) (A) (A)
                 (A) (A) (A) (A) (A) (A) (A) (A) (A) (A) (A) (A)
                 (A) (A) (A) (A) (A) (A) (A) (A) (A) (A) (A) (A)
                 (A) (A) (A) (A) (A) (A) (A) (A) (A) (A) (A) (A)
                 (A) (A) (A) (A) (A) (A) (A) (A) (A) (A) (A) (A)
                 (A) (A) (A) (A) (A) (A) (A) (A) (A) (A) (A) (A)
                 (A) (A) (A) (A) (A)
    40 initial guesses have been made.
 Convergence on wavefunction:    0.000001000000000
 Davidson Disk Diagonalization:  ConvIn= 1.00D-06 SkipCon=T Conv= 1.00D-06.
 Max sub-space:  2000 roots to seek:    40 dimension of matrix:        25360
 Iteration     1 Dimension    40 NMult     0 NNew     40
 CISAX will form    40 AO SS matrices at one time.
 NMat=    40 NSing=    40 JSym2X= 0.
 FoFJK:  IHMeth= 1 ICntrl=       0 DoSepK=T KAlg= 0 I1Cent=           0 FoldK=F
 IRaf=         1 NMat=      80 IRICut=       1 DoRegI=T DoRafI=F ISym2E= 0 IDoP0=3 IntGTp=3.
 FoFCou: FMM=F IPFlag=           0 FMFlag=      100000 FMFlg1=           0
         NFxFlg=           0 DoJE=F BraDBF=F KetDBF=F FulRan=T
         wScrn=  0.000000 ICntrl=       500 IOpCl=  0 I1Cent=           0 NGrid=           0
         NMat0=   40 NMatS0=     40 NMatT0=    0 NMatD0=   40 NMtDS0=    0 NMtDT0=    0
 Symmetry not used in FoFCou.
 New state      2 was old state      6
 New state      3 was old state      2
 New state      4 was old state      3
 New state      5 was old state     17
 New state      6 was old state      4
 New state      7 was old state      5
 New state      9 was old state     11
 New state     10 was old state      9
 Excitation Energies [eV] at current iteration:
 Root      1 :     5.754462552797122
 Root      2 :     5.792361153227501
 Root      3 :     6.599453229213823
 Root      4 :     6.925845213993957
 Root      5 :     7.225178051052589
 Root      6 :     7.275747948080598
 Root      7 :     7.384530875222467
 Root      8 :     7.515559441520097
 Root      9 :     7.568016619216765
 Root     10 :     7.685958456893363
 Root     11 :     7.990380310476207
 Root     12 :     8.054910815468624
 Root     13 :     8.087272311002254
 Root     14 :     8.128439599334579
 Root     15 :     8.160313576706228
 Root     16 :     8.271210308495506
 Root     17 :     8.386844459064690
 Root     18 :     8.463256039269593
 Root     19 :     8.519961987051071
 Root     20 :     8.529066724929843
 Root     21 :     8.582175161613325
 Root     22 :     8.608489605046648
 Root     23 :     8.643204522457577
 Root     24 :     8.737198582482502
 Root     25 :     8.776397606225196
 Root     26 :     8.816423516893531
 Root     27 :     8.963413180878767
 Root     28 :     9.067325040962048
 Root     29 :     9.147620046920888
 Root     30 :     9.193696616450531
 Root     31 :     9.213674520060762
 Root     32 :     9.258837459424964
 Root     33 :     9.267883822378248
 Root     34 :     9.416471633290765
 Root     35 :     9.491762559666281
 Root     36 :     9.515878183396620
 Root     37 :     9.565239217229374
 Root     38 :     9.647288451979136
 Root     39 :     9.928546196972967
 Root     40 :     9.956515781511863
 Iteration     2 Dimension    60 NMult    40 NNew     20
 CISAX will form    20 AO SS matrices at one time.
 NMat=    20 NSing=    20 JSym2X= 0.
 Root      1 not converged, maximum delta is    0.055224633935983
 Root      2 not converged, maximum delta is    0.069523557439602
 New state      3 was old state      4
 Root      3 not converged, maximum delta is    0.120550459831102
 New state      4 was old state      3
 Root      4 not converged, maximum delta is    0.038679002699351
 New state      5 was old state      8
 Root      5 not converged, maximum delta is    0.149075401495115
 New state      6 was old state      5
 Root      6 not converged, maximum delta is    0.134531643872853
 New state      7 was old state      6
 Root      7 not converged, maximum delta is    0.068860029108234
 New state      8 was old state      7
 Root      8 not converged, maximum delta is    0.052734703524688
 Root      9 not converged, maximum delta is    0.129207662181217
 Root     10 not converged, maximum delta is    0.086568478707233
 Excitation Energies [eV] at current iteration:
 Root      1 :     5.080022155763665   Change is   -0.674440397033458
 Root      2 :     5.541822780899743   Change is   -0.250538372327758
 Root      3 :     6.306812201771688   Change is   -0.619033012222268
 Root      4 :     6.482984143528900   Change is   -0.116469085684923
 Root      5 :     6.798369152321521   Change is   -0.717190289198576
 Root      6 :     6.825402070649802   Change is   -0.399775980402788
 Root      7 :     7.139051606601186   Change is   -0.136696341479413
 Root      8 :     7.258699252144530   Change is   -0.125831623077937
 Root      9 :     7.422020765651093   Change is   -0.145995853565673
 Root     10 :     7.538663518822276   Change is   -0.147294938071087
 Iteration     3 Dimension    80 NMult    60 NNew     20
 CISAX will form    20 AO SS matrices at one time.
 NMat=    20 NSing=    20 JSym2X= 0.
 Root      1 not converged, maximum delta is    0.017916410838464
 Root      2 not converged, maximum delta is    0.008670022082293
 Root      3 not converged, maximum delta is    0.010732670683080
 Root      4 not converged, maximum delta is    0.003410328963021
 Root      5 not converged, maximum delta is    0.027086151125006
 Root      6 not converged, maximum delta is    0.034417875234405
 Root      7 not converged, maximum delta is    0.007061751336999
 Root      8 not converged, maximum delta is    0.008016678314342
 Root      9 not converged, maximum delta is    0.030573882677424
 Root     10 not converged, maximum delta is    0.064286062740662
 Excitation Energies [eV] at current iteration:
 Root      1 :     5.037763081569101   Change is   -0.042259074194563
 Root      2 :     5.534290633934584   Change is   -0.007532146965159
 Root      3 :     6.276443415180350   Change is   -0.030368786591338
 Root      4 :     6.481184655167435   Change is   -0.001799488361465
 Root      5 :     6.767296433159881   Change is   -0.031072719161640
 Root      6 :     6.792997014794419   Change is   -0.032405055855382
 Root      7 :     7.134158424989711   Change is   -0.004893181611474
 Root      8 :     7.253932195982936   Change is   -0.004767056161594
 Root      9 :     7.402148975148958   Change is   -0.019871790502135
 Root     10 :     7.526363946088873   Change is   -0.012299572733403
 Iteration     4 Dimension   100 NMult    80 NNew     20
 CISAX will form    20 AO SS matrices at one time.
 NMat=    20 NSing=    20 JSym2X= 0.
 Root      1 not converged, maximum delta is    0.002463764448182
 Root      2 not converged, maximum delta is    0.001932460267564
 Root      3 not converged, maximum delta is    0.004150797058559
 Root      4 not converged, maximum delta is    0.000443936742732
 Root      5 not converged, maximum delta is    0.003163683085431
 Root      6 not converged, maximum delta is    0.007738295635403
 Root      7 not converged, maximum delta is    0.001232186243297
 Root      8 not converged, maximum delta is    0.001802727867322
 Root      9 not converged, maximum delta is    0.013933360251091
 Root     10 not converged, maximum delta is    0.077630786298332
 Excitation Energies [eV] at current iteration:
 Root      1 :     5.034869648877826   Change is   -0.002893432691276
 Root      2 :     5.533451899716548   Change is   -0.000838734218036
 Root      3 :     6.272827533104489   Change is   -0.003615882075861
 Root      4 :     6.481115415490593   Change is   -0.000069239676842
 Root      5 :     6.764301929803700   Change is   -0.002994503356181
 Root      6 :     6.790212872591773   Change is   -0.002784142202646
 Root      7 :     7.133905227509610   Change is   -0.000253197480102
 Root      8 :     7.253593747662427   Change is   -0.000338448320509
 Root      9 :     7.399020704839598   Change is   -0.003128270309359
 Root     10 :     7.518373955060756   Change is   -0.007989991028117
 Iteration     5 Dimension   120 NMult   100 NNew     20
 CISAX will form    20 AO SS matrices at one time.
 NMat=    20 NSing=    20 JSym2X= 0.
 Root      1 not converged, maximum delta is    0.000503891382408
 Root      2 not converged, maximum delta is    0.000232976829405
 Root      3 not converged, maximum delta is    0.000836140961843
 Root      4 not converged, maximum delta is    0.000114935198044
 Root      5 not converged, maximum delta is    0.001187772580346
 Root      6 not converged, maximum delta is    0.001047688046680
 Root      7 not converged, maximum delta is    0.000598886112745
 Root      8 not converged, maximum delta is    0.000568521160625
 Root      9 not converged, maximum delta is    0.001988118888791
 Root     10 not converged, maximum delta is    0.023333845490494
 Excitation Energies [eV] at current iteration:
 Root      1 :     5.034712618518690   Change is   -0.000157030359135
 Root      2 :     5.533422181873235   Change is   -0.000029717843313
 Root      3 :     6.272571670107561   Change is   -0.000255862996929
 Root      4 :     6.481110864392261   Change is   -0.000004551098332
 Root      5 :     6.763971775407877   Change is   -0.000330154395823
 Root      6 :     6.790045538163371   Change is   -0.000167334428402
 Root      7 :     7.133882879241477   Change is   -0.000022348268132
 Root      8 :     7.253559419076622   Change is   -0.000034328585805
 Root      9 :     7.398801334368945   Change is   -0.000219370470654
 Root     10 :     7.516155181628903   Change is   -0.002218773431853
 Iteration     6 Dimension   140 NMult   120 NNew     20
 CISAX will form    20 AO SS matrices at one time.
 NMat=    20 NSing=    20 JSym2X= 0.
 Root      1 not converged, maximum delta is    0.000118299663827
 Root      2 not converged, maximum delta is    0.000047038705172
 Root      3 not converged, maximum delta is    0.000422631397830
 Root      4 not converged, maximum delta is    0.000047358803301
 Root      5 not converged, maximum delta is    0.000700773591568
 Root      6 not converged, maximum delta is    0.000148923068161
 Root      7 not converged, maximum delta is    0.000249783613694
 Root      8 not converged, maximum delta is    0.000404485799722
 Root      9 not converged, maximum delta is    0.000372054338469
 Root     10 not converged, maximum delta is    0.003475686067333
 Excitation Energies [eV] at current iteration:
 Root      1 :     5.034705404041438   Change is   -0.000007214477252
 Root      2 :     5.533421078366488   Change is   -0.000001103506747
 Root      3 :     6.272552232209475   Change is   -0.000019437898086
 Root      4 :     6.481110502630104   Change is   -0.000000361762157
 Root      5 :     6.763935395482660   Change is   -0.000036379925217
 Root      6 :     6.790033479814060   Change is   -0.000012058349311
 Root      7 :     7.133879301176503   Change is   -0.000003578064975
 Root      8 :     7.253552455052234   Change is   -0.000006964024389
 Root      9 :     7.398785080383644   Change is   -0.000016253985300
 Root     10 :     7.515866903036630   Change is   -0.000288278592272
 Iteration     7 Dimension   160 NMult   140 NNew     20
 CISAX will form    20 AO SS matrices at one time.
 NMat=    20 NSing=    20 JSym2X= 0.
 Root      1 not converged, maximum delta is    0.000019039115627
 Root      2 not converged, maximum delta is    0.000011907091531
 Root      3 not converged, maximum delta is    0.000143351951697
 Root      4 not converged, maximum delta is    0.000017468396623
 Root      5 not converged, maximum delta is    0.000213208986153
 Root      6 not converged, maximum delta is    0.000041432988031
 Root      7 not converged, maximum delta is    0.000076134270744
 Root      8 not converged, maximum delta is    0.000104743014186
 Root      9 not converged, maximum delta is    0.000093981524305
 Root     10 not converged, maximum delta is    0.001059560287830
 Excitation Energies [eV] at current iteration:
 Root      1 :     5.034705157362181   Change is   -0.000000246679258
 Root      2 :     5.533421029626044   Change is   -0.000000048740444
 Root      3 :     6.272550654998356   Change is   -0.000001577211119
 Root      4 :     6.481110463619783   Change is   -0.000000039010321
 Root      5 :     6.763931311818883   Change is   -0.000004083663777
 Root      6 :     6.790032740135990   Change is   -0.000000739678070
 Root      7 :     7.133878881950614   Change is   -0.000000419225889
 Root      8 :     7.253551396010563   Change is   -0.000001059041671
 Root      9 :     7.398783768736757   Change is   -0.000001311646887
 Root     10 :     7.515820989342439   Change is   -0.000045913694192
 Iteration     8 Dimension   180 NMult   160 NNew     20
 CISAX will form    20 AO SS matrices at one time.
 NMat=    20 NSing=    20 JSym2X= 0.
 Root      1 not converged, maximum delta is    0.000003454123035
 Root      2 not converged, maximum delta is    0.000001262008400
 Root      3 not converged, maximum delta is    0.000019985975362
 Root      4 not converged, maximum delta is    0.000004839717796
 Root      5 not converged, maximum delta is    0.000043929543784
 Root      6 not converged, maximum delta is    0.000011342818460
 Root      7 not converged, maximum delta is    0.000030514132575
 Root      8 not converged, maximum delta is    0.000019632823216
 Root      9 not converged, maximum delta is    0.000031162661259
 Root     10 not converged, maximum delta is    0.000245588512187
 Excitation Energies [eV] at current iteration:
 Root      1 :     5.034705148714064   Change is   -0.000000008648117
 Root      2 :     5.533421027561340   Change is   -0.000000002064703
 Root      3 :     6.272550546799105   Change is   -0.000000108199251
 Root      4 :     6.481110460661911   Change is   -0.000000002957872
 Root      5 :     6.763930960387448   Change is   -0.000000351431435
 Root      6 :     6.790032690281137   Change is   -0.000000049854852
 Root      7 :     7.133878826180326   Change is   -0.000000055770288
 Root      8 :     7.253551308842439   Change is   -0.000000087168124
 Root      9 :     7.398783642739785   Change is   -0.000000125996972
 Root     10 :     7.515815843482632   Change is   -0.000005145859806
 Iteration     9 Dimension   200 NMult   180 NNew     20
 CISAX will form    20 AO SS matrices at one time.
 NMat=    20 NSing=    20 JSym2X= 0.
 Root      1 has converged.
 Root      2 has converged.
 Root      3 not converged, maximum delta is    0.000005316970572
 Root      4 has converged.
 Root      5 not converged, maximum delta is    0.000010991313841
 Root      6 not converged, maximum delta is    0.000002171742991
 Root      7 not converged, maximum delta is    0.000009036351318
 Root      8 not converged, maximum delta is    0.000005289486760
 Root      9 not converged, maximum delta is    0.000009309115235
 Root     10 not converged, maximum delta is    0.000064435278158
 Excitation Energies [eV] at current iteration:
 Root      1 :     5.034705148396856   Change is   -0.000000000317207
 Root      2 :     5.533421027469215   Change is   -0.000000000092125
 Root      3 :     6.272550539982523   Change is   -0.000000006816583
 Root      4 :     6.481110460490471   Change is   -0.000000000171440
 Root      5 :     6.763930932440192   Change is   -0.000000027947256
 Root      6 :     6.790032686786754   Change is   -0.000000003494384
 Root      7 :     7.133878818871638   Change is   -0.000000007308687
 Root      8 :     7.253551302633324   Change is   -0.000000006209114
 Root      9 :     7.398783629574530   Change is   -0.000000013165255
 Root     10 :     7.515815356516620   Change is   -0.000000486966012
 Iteration    10 Dimension   214 NMult   200 NNew     14
 CISAX will form    14 AO SS matrices at one time.
 NMat=    14 NSing=    14 JSym2X= 0.
 Root      1 has converged.
 Root      2 has converged.
 Root      3 has converged.
 Root      4 has converged.
 Root      5 not converged, maximum delta is    0.000001555532895
 Root      6 has converged.
 Root      7 not converged, maximum delta is    0.000001512510668
 Root      8 not converged, maximum delta is    0.000001416517845
 Root      9 not converged, maximum delta is    0.000002336965485
 Root     10 not converged, maximum delta is    0.000031203186004
 Excitation Energies [eV] at current iteration:
 Root      1 :     5.034705148390652   Change is   -0.000000000006205
 Root      2 :     5.533421027468189   Change is   -0.000000000001026
 Root      3 :     6.272550539644062   Change is   -0.000000000338460
 Root      4 :     6.481110460486386   Change is   -0.000000000004084
 Root      5 :     6.763930930752005   Change is   -0.000000001688188
 Root      6 :     6.790032686545569   Change is   -0.000000000241185
 Root      7 :     7.133878818277255   Change is   -0.000000000594384
 Root      8 :     7.253551302185428   Change is   -0.000000000447896
 Root      9 :     7.398783628392136   Change is   -0.000000001182394
 Root     10 :     7.515815311589415   Change is   -0.000000044927205
 Iteration    11 Dimension   224 NMult   214 NNew     10
 CISAX will form    10 AO SS matrices at one time.
 NMat=    10 NSing=    10 JSym2X= 0.
 Root      1 has converged.
 Root      2 has converged.
 Root      3 has converged.
 Root      4 has converged.
 Root      5 has converged.
 Root      6 has converged.
 Root      7 has converged.
 Root      8 has converged.
 Root      9 has converged.
 Root     10 not converged, maximum delta is    0.000011084359146
 Excitation Energies [eV] at current iteration:
 Root      1 :     5.034705148390244   Change is   -0.000000000000409
 Root      2 :     5.533421027468042   Change is   -0.000000000000148
 Root      3 :     6.272550539638505   Change is   -0.000000000005557
 Root      4 :     6.481110460485943   Change is   -0.000000000000443
 Root      5 :     6.763930930648113   Change is   -0.000000000103891
 Root      6 :     6.790032686544418   Change is   -0.000000000001150
 Root      7 :     7.133878818235620   Change is   -0.000000000041635
 Root      8 :     7.253551302150951   Change is   -0.000000000034476
 Root      9 :     7.398783628285172   Change is   -0.000000000106964
 Root     10 :     7.515815306891461   Change is   -0.000000004697954
 Iteration    12 Dimension   226 NMult   224 NNew      2
 CISAX will form     2 AO SS matrices at one time.
 NMat=     2 NSing=     2 JSym2X= 0.
 Root      1 has converged.
 Root      2 has converged.
 Root      3 has converged.
 Root      4 has converged.
 Root      5 has converged.
 Root      6 has converged.
 Root      7 has converged.
 Root      8 has converged.
 Root      9 has converged.
 Root     10 not converged, maximum delta is    0.000002793910421
 Excitation Energies [eV] at current iteration:
 Root      1 :     5.034705148390162   Change is   -0.000000000000082
 Root      2 :     5.533421027468071   Change is    0.000000000000029
 Root      3 :     6.272550539638440   Change is   -0.000000000000065
 Root      4 :     6.481110460485866   Change is   -0.000000000000076
 Root      5 :     6.763930930647068   Change is   -0.000000000001045
 Root      6 :     6.790032686544285   Change is   -0.000000000000133
 Root      7 :     7.133878818235620   Change is    0.000000000000000
 Root      8 :     7.253551302150826   Change is   -0.000000000000125
 Root      9 :     7.398783628284860   Change is   -0.000000000000311
 Root     10 :     7.515815306416733   Change is   -0.000000000474728
 Iteration    13 Dimension   228 NMult   226 NNew      2
 CISAX will form     2 AO SS matrices at one time.
 NMat=     2 NSing=     2 JSym2X= 0.
 Root      1 has converged.
 Root      2 has converged.
 Root      3 has converged.
 Root      4 has converged.
 Root      5 has converged.
 Root      6 has converged.
 Root      7 has converged.
 Root      8 has converged.
 Root      9 has converged.
 Root     10 has converged.
 Excitation Energies [eV] at current iteration:
 Root      1 :     5.034705148390293   Change is    0.000000000000131
 Root      2 :     5.533421027468100   Change is    0.000000000000029
 Root      3 :     6.272550539638440   Change is    0.000000000000000
 Root      4 :     6.481110460485841   Change is   -0.000000000000026
 Root      5 :     6.763930930646874   Change is   -0.000000000000194
 Root      6 :     6.790032686544237   Change is   -0.000000000000049
 Root      7 :     7.133878818235596   Change is   -0.000000000000024
 Root      8 :     7.253551302150884   Change is    0.000000000000057
 Root      9 :     7.398783628284739   Change is   -0.000000000000122
 Root     10 :     7.515815306372172   Change is   -0.000000000044561
 Convergence achieved on expansion vectors.
 ***********************************************************************
 Excited states from <AA,BB:AA,BB> singles matrix:
 ***********************************************************************
 
 1PDM for each excited state written to RWF  633
 Ground to excited state transition densities written to RWF  633
 Ground to excited state transition electric dipole moments (Au):
       state          X           Y           Z        Dip. S.      Osc.
         1        -1.6834      0.4796     -0.0296      3.0647      0.3780
         2         0.0286      0.0074      0.0115      0.0010      0.0001
         3        -0.2258     -1.6053     -0.1402      2.6476      0.4069
         4         0.0029      0.0596     -0.1525      0.0268      0.0043
         5        -0.8148      0.8148      0.0394      1.3293      0.2203
         6        -0.0263      0.0842     -0.0176      0.0081      0.0013
         7         0.0165      0.0180     -0.1235      0.0159      0.0028
         8         0.0272      0.0196     -0.0811      0.0077      0.0014
         9         0.0021      0.0260      0.0711      0.0057      0.0010
        10         0.8925     -0.3992      0.0097      0.9561      0.1760
 Ground to excited state transition velocity dipole moments (Au):
       state          X           Y           Z        Dip. S.      Osc.
         1         0.3110     -0.0914      0.0052      0.1051      0.3787
         2        -0.0060     -0.0018     -0.0093      0.0001      0.0004
         3         0.0467      0.3671      0.0322      0.1380      0.3991
         4        -0.0005     -0.0140      0.0379      0.0016      0.0046
         5         0.1961     -0.1983     -0.0097      0.0779      0.2089
         6         0.0052     -0.0215      0.0061      0.0005      0.0014
         7        -0.0039     -0.0044      0.0311      0.0010      0.0026
         8        -0.0068     -0.0050      0.0205      0.0005      0.0012
         9        -0.0012     -0.0077     -0.0109      0.0002      0.0004
        10        -0.2398      0.1078     -0.0025      0.0691      0.1668
 Ground to excited state transition magnetic dipole moments (Au):
       state          X           Y           Z
         1         0.0417      0.0614     -1.7713
         2        -0.7394     -0.0163      0.0279
         3         0.0662     -0.0724      0.8143
         4         0.0807     -0.2347     -0.0495
         5        -0.0443     -0.0375     -0.5020
         6        -0.2727      0.6943     -0.0374
         7         0.3474      0.3763      0.0312
         8         0.1238      0.1363      0.0094
         9        -0.3595      0.2668     -0.0219
        10        -0.0063      0.0644      0.0848
 Ground to excited state transition velocity quadrupole moments (Au):
       state          XX          YY          ZZ          XY          XZ          YZ
         1         0.2941     -0.3502     -0.0140      0.7086     -0.0002      0.0202
         2         0.0525      0.0085     -0.0039      0.0149      0.0313     -0.0573
         3        -0.3216      1.1000      0.0592      0.5148      0.0346      0.0420
         4        -0.0101     -0.0276      0.0017     -0.0237      0.1999      0.0741
         5        -0.6331     -0.2775      0.0120      0.3019     -0.0327      0.0423
         6         0.0133      0.0602     -0.0090      0.0292     -0.0386     -0.0301
         7         0.0793     -0.0602     -0.0011      0.0204     -0.2681      0.2324
         8         0.0219      0.0600     -0.0417      0.0310     -0.1281      0.0296
         9         0.0379      0.0066     -0.0199     -0.0154     -0.0545     -0.0570
        10         0.1154     -0.1789     -0.1060     -0.1697      0.0670     -0.0513
 <0|del|b> * <b|rxdel|0> + <0|del|b> * <b|delr+rdel|0>
 Rotatory Strengths (R) in cgs (10**-40 erg-esu-cm/Gauss)
       state          XX          YY          ZZ    R(velocity)    E-M Angle
         1       -21.3021     12.1798      2.0643     -2.3527       90.18
         2        -0.5455      8.1063      7.0736      4.8781       59.61
         3         5.3959     22.5525    -19.5414      2.8023       89.48
         4         4.9223     -1.5775      0.7185      1.3544       82.32
         5         4.1107     10.5612     -4.3538      3.4393       88.53
         6       -22.4450     -2.7887    -21.7924    -15.6753      165.32
         7        -1.6822     -2.6256     -1.2574     -1.8551       97.29
         8        -0.6673     -1.9730     -0.9066     -1.1823      109.09
         9        -2.6719      0.7529     -1.6345     -1.1845      103.20
        10        -0.0942     16.8648      4.2995      7.0233       72.93
 1/2[<0|r|b>*<b|rxdel|0> + (<0|rxdel|b>*<b|r|0>)*]
 Rotatory Strengths (R) in cgs (10**-40 erg-esu-cm/Gauss)
       state          XX          YY          ZZ     R(length)
         1        49.5851    -20.8200    -37.0612     -2.7653
         2        14.9658      0.0859     -0.2268      4.9416
         3        10.5733    -82.1852     80.7103      3.0328
         4        -0.1650      9.8952     -5.3394      1.4636
         5       -25.5282     21.5925     13.9689      3.3444
         6        -5.0736    -41.3603     -0.4649    -15.6329
         7        -4.0531     -4.7901      2.7258     -2.0391
         8        -2.3811     -1.8880      0.5416     -1.2425
         9         0.5310     -4.9027      1.1016     -1.0900
        10         3.9505     18.1766     -0.5787      7.1828
  1/2[<0|del|b>*<b|r|0> + (<0|r|b>*<b|del|0>)*] (Au)
       state          X           Y           Z        Dip. S.   Osc.(frdel)
         1        -0.5236     -0.0438     -0.0002      0.5676      0.3784
         2        -0.0002     -0.0000     -0.0001      0.0003      0.0002
         3        -0.0106     -0.5893     -0.0045      0.6044      0.4029
         4        -0.0000     -0.0008     -0.0058      0.0066      0.0044
         5        -0.1597     -0.1616     -0.0004      0.3217      0.2145
         6        -0.0001     -0.0018     -0.0001      0.0021      0.0014
         7        -0.0001     -0.0001     -0.0038      0.0040      0.0027
         8        -0.0002     -0.0001     -0.0017      0.0019      0.0013
         9        -0.0000     -0.0002     -0.0008      0.0010      0.0006
        10        -0.2140     -0.0430     -0.0000      0.2570      0.1714

 Excitation energies and oscillator strengths:
 
 Excited State   1:      Singlet-A      5.0347 eV  246.26 nm  f=0.3780  <S**2>=0.000
      53 -> 54         0.69708
 
 Excited State   2:      Singlet-A      5.5334 eV  224.06 nm  f=0.0001  <S**2>=0.000
      49 -> 54        -0.16849
      52 -> 54         0.63591
      52 -> 56         0.18810
 
 Excited State   3:      Singlet-A      6.2726 eV  197.66 nm  f=0.4069  <S**2>=0.000
      53 -> 56         0.69206
 
 Excited State   4:      Singlet-A      6.4811 eV  191.30 nm  f=0.0043  <S**2>=0.000
      53 -> 55         0.64782
      53 -> 57         0.10002
      53 -> 58        -0.12116
      53 -> 62        -0.19555
 
 Excited State   5:      Singlet-A      6.7639 eV  183.30 nm  f=0.2203  <S**2>=0.000
      50 -> 54         0.50670
      51 -> 54        -0.45107
 This state for optimization and/or second-order correction.
 Total Energy, E(TD-HF/TD-DFT) =  -759.642291003    
 Copying the excited state density for this state as the 1-particle RhoCI density.
 
 Excited State   6:      Singlet-A      6.7900 eV  182.60 nm  f=0.0013  <S**2>=0.000
      47 -> 56         0.14550
      49 -> 54        -0.20994
      49 -> 56         0.43850
      52 -> 54        -0.13914
      52 -> 56         0.40577
 
 Excited State   7:      Singlet-A      7.1339 eV  173.80 nm  f=0.0028  <S**2>=0.000
      53 -> 57         0.62464
      53 -> 58         0.14178
      53 -> 60        -0.20251
      53 -> 62         0.10852
 
 Excited State   8:      Singlet-A      7.2536 eV  170.93 nm  f=0.0014  <S**2>=0.000
      53 -> 55         0.10836
      53 -> 57        -0.10207
      53 -> 58         0.64097
      53 -> 60         0.14039
 
 Excited State   9:      Singlet-A      7.3988 eV  167.57 nm  f=0.0010  <S**2>=0.000
      47 -> 54         0.11378
      49 -> 54         0.61117
      49 -> 56         0.13383
      52 -> 54         0.12423
      52 -> 56         0.20383
 
 Excited State  10:      Singlet-A      7.5158 eV  164.96 nm  f=0.1760  <S**2>=0.000
      50 -> 56        -0.29460
      51 -> 56         0.26971
      53 -> 59         0.53685
 SavETr:  write IOETrn=   770 NScale= 10 NData=  16 NLR=1 NState=   10 LETran=     190.
 The selected state is a singlet.
 CISGrd: IGrad=3 NXY=2 DFT=T
 CISAX will form     1 AO SS matrices at one time.
 NMat=     1 NSing=     1 JSym2X= 0.
 GePol: Maximum number of non-zero 1st derivatives   =     266
 GePol: Maximum number of non-zero 2nd derivatives   =     266
 Leave Link  914 at Thu Jan  5 15:12:53 2023, MaxMem=  1342177280 cpu:            6606.7 elap:             132.3
 (Enter /shared/gaussian/g16.b01/AVX2/g16/l1002.exe)
 Minotr:  Closed shell wavefunction.
          Computing CIS/TDA/TD derivatives.
          Using Z-Vector for PSCF gradient.
          Skipping F1 and S1 gradient terms here.
          IDoAtm=111111111111111111111111111
 NEqPCM:  Using equilibrium solvation (IEInf=0, Eps=  78.3553, EpsInf=   1.7778)
          Frozen-core window.
          Direct CPHF calculation.
          Differentiating once with respect to electric field.
                with respect to dipole field.
          Differentiating once with respect to nuclear coordinates.
          Requested convergence is 1.0D-10 RMS, and 1.0D-09 maximum.
          NewPWx=F KeepS1=T KeepF1=T KeepIn=T MapXYZ=F SortEE=F KeepMc=T.
 Two-electron integral symmetry used by symmetrizing perturbed Fock matrices.
          MDV=    1342177280 using IRadAn=       5.
          Solving linear equations separately, MaxMat=     350.
          There are     1 degrees of freedom in the 1st order CPHF.  IDoFFX=0 NUNeed=     1.
 FoFJK:  IHMeth= 1 ICntrl=       0 DoSepK=T KAlg= 0 I1Cent=           0 FoldK=F
 IRaf=         1 NMat=       1 IRICut=       1 DoRegI=T DoRafI=F ISym2E=-1 IDoP0=0 IntGTp=1.
 FoFCou: FMM=F IPFlag=           0 FMFlag=      100000 FMFlg1=           0
         NFxFlg=           0 DoJE=T BraDBF=F KetDBF=F FulRan=T
         wScrn=  0.000000 ICntrl=       500 IOpCl=  0 I1Cent=           0 NGrid=           0
         NMat0=    1 NMatS0=      1 NMatT0=    0 NMatD0=    1 NMtDS0=    0 NMtDT0=    0
 Petite list used in FoFCou.
 LinEq1:  Iter=  0 NonCon=     1 RMS=7.35D-03 Max=3.43D-01 NDo=     1
 AX will form     1 AO Fock derivatives at one time.
 LinEq1:  Iter=  1 NonCon=     1 RMS=2.08D-03 Max=7.49D-02 NDo=     1
 LinEq1:  Iter=  2 NonCon=     1 RMS=1.37D-03 Max=6.35D-02 NDo=     1
 LinEq1:  Iter=  3 NonCon=     1 RMS=5.86D-04 Max=1.75D-02 NDo=     1
 LinEq1:  Iter=  4 NonCon=     1 RMS=3.52D-04 Max=1.13D-02 NDo=     1
 LinEq1:  Iter=  5 NonCon=     1 RMS=1.38D-04 Max=9.59D-03 NDo=     1
 LinEq1:  Iter=  6 NonCon=     1 RMS=6.62D-05 Max=1.91D-03 NDo=     1
 LinEq1:  Iter=  7 NonCon=     1 RMS=3.67D-05 Max=1.72D-03 NDo=     1
 LinEq1:  Iter=  8 NonCon=     1 RMS=1.71D-05 Max=4.14D-04 NDo=     1
 LinEq1:  Iter=  9 NonCon=     1 RMS=8.28D-06 Max=2.70D-04 NDo=     1
 LinEq1:  Iter= 10 NonCon=     1 RMS=5.14D-06 Max=2.03D-04 NDo=     1
 LinEq1:  Iter= 11 NonCon=     1 RMS=1.79D-06 Max=4.89D-05 NDo=     1
 LinEq1:  Iter= 12 NonCon=     1 RMS=9.94D-07 Max=4.71D-05 NDo=     1
 LinEq1:  Iter= 13 NonCon=     1 RMS=2.80D-07 Max=8.73D-06 NDo=     1
 LinEq1:  Iter= 14 NonCon=     1 RMS=1.43D-07 Max=3.49D-06 NDo=     1
 LinEq1:  Iter= 15 NonCon=     1 RMS=6.60D-08 Max=2.30D-06 NDo=     1
 LinEq1:  Iter= 16 NonCon=     1 RMS=2.19D-08 Max=3.57D-07 NDo=     1
 LinEq1:  Iter= 17 NonCon=     1 RMS=1.06D-08 Max=2.14D-07 NDo=     1
 LinEq1:  Iter= 18 NonCon=     1 RMS=3.07D-09 Max=6.20D-08 NDo=     1
 LinEq1:  Iter= 19 NonCon=     1 RMS=1.84D-09 Max=3.52D-08 NDo=     1
 LinEq1:  Iter= 20 NonCon=     1 RMS=5.83D-10 Max=1.23D-08 NDo=     1
 LinEq1:  Iter= 21 NonCon=     1 RMS=2.29D-10 Max=5.16D-09 NDo=     1
 LinEq1:  Iter= 22 NonCon=     1 RMS=1.18D-10 Max=3.75D-09 NDo=     1
 LinEq1:  Iter= 23 NonCon=     1 RMS=4.91D-11 Max=1.60D-09 NDo=     1
 LinEq1:  Iter= 24 NonCon=     1 RMS=2.53D-11 Max=1.15D-09 NDo=     1
 LinEq1:  Iter= 25 NonCon=     0 RMS=8.21D-12 Max=2.81D-10 NDo=     1
 Linear equations converged to 1.000D-10 1.000D-09 after    25 iterations.
          There are     1 degrees of freedom in the 1st order CPHF.  IDoFFX=0 NUNeed=     1.
 End of Minotr F.D. properties file   721 does not exist.
 End of Minotr F.D. properties file   722 does not exist.
 End of Minotr F.D. properties file   788 does not exist.
 Leave Link 1002 at Thu Jan  5 15:13:47 2023, MaxMem=  1342177280 cpu:            2683.2 elap:              54.1
 (Enter /shared/gaussian/g16.b01/AVX2/g16/l1101.exe)
 Using compressed Sx but separate Hx and Fx, NAtomX=    27.
 Will process     28 centers per pass.
 Leave Link 1101 at Thu Jan  5 15:13:47 2023, MaxMem=  1342177280 cpu:              21.3 elap:               0.4
 (Enter /shared/gaussian/g16.b01/AVX2/g16/l1102.exe)
 Use density number 6.
 Symmetrizing basis deriv contribution to polar:
 IMax=3 JMax=2 DiffMx= 0.00D+00
 Leave Link 1102 at Thu Jan  5 15:13:48 2023, MaxMem=  1342177280 cpu:               1.3 elap:               0.0
 (Enter /shared/gaussian/g16.b01/AVX2/g16/l1110.exe)
 Forming Gx(P) for the SCF density, NAtomX=    27.
 Integral derivatives from FoFJK, PRISM(SPDF).
 Do as many integral derivatives as possible in FoFJK.
 G2DrvN: MDV=    1342174984.
 G2DrvN: will do    28 centers at a time, making    1 passes.
 Calling FoFCou, ICntrl=  3107 FMM=F I1Cent=   0 AccDes= 0.00D+00.
 FoFJK:  IHMeth= 1 ICntrl=    3107 DoSepK=T KAlg= 0 I1Cent=           0 FoldK=F
 IRaf=         1 NMat=       1 IRICut=       1 DoRegI=T DoRafI=F ISym2E= 0 IDoP0=0 IntGTp=1.
 FoFCou: FMM=F IPFlag=           0 FMFlag=      100000 FMFlg1=           0
         NFxFlg=           0 DoJE=F BraDBF=F KetDBF=F FulRan=T
         wScrn=  0.000000 ICntrl=      3507 IOpCl=  0 I1Cent=           0 NGrid=           0
         NMat0=    1 NMatS0=      1 NMatT0=    0 NMatD0=    1 NMtDS0=    0 NMtDT0=    0
 Symmetry not used in FoFCou.
 NEqPCM:  Using equilibrium solvation (IEInf=0, Eps=  78.3553, EpsInf=   1.7778)
 G2PCM: DoFxE=T DoFxN=T DoGrad=T DoDP/DQ/DG/TGxP=FFFF NFrqRd=   0 IEInf=0 SqF1=F DoCFld=F IF1Alg=4.
 Forming Gx(P) for generalized density number  6 NAtomX=    27.
 Integral derivatives from FoFJK, PRISM(SPDF).
 Do as many integral derivatives as possible in FoFJK.
 G2DrvN: MDV=    1342174984.
 G2DrvN: will do    28 centers at a time, making    1 passes.
 Calling FoFCou, ICntrl=  3107 FMM=F I1Cent=   0 AccDes= 0.00D+00.
 NEqPCM:  Using equilibrium solvation (IEInf=0, Eps=  78.3553, EpsInf=   1.7778)
 G2PCM: DoFxE=T DoFxN=F DoGrad=F DoDP/DQ/DG/TGxP=FFFF NFrqRd=   0 IEInf=0 SqF1=F DoCFld=F IF1Alg=4.
 Forming Gx(T) for CIS/TDA/TD state  5 NAtomX=    27.
 Integral derivatives from FoFJK, PRISM(SPDF).
 Do as many integral derivatives as possible in FoFJK.
 G2DrvN: MDV=    1342174984.
 G2DrvN: will do    28 centers at a time, making    1 passes.
 Calling FoFCou, ICntrl=  3107 FMM=F I1Cent=   0 AccDes= 0.00D+00.
 NEqPCM:  Using equilibrium solvation (IEInf=0, Eps=  78.3553, EpsInf=   1.7778)
 G2PCM: DoFxE=T DoFxN=F DoGrad=F DoDP/DQ/DG/TGxP=FFFF NFrqRd=   0 IEInf=0 SqF1=T DoCFld=F IF1Alg=4.
 End of G2Drv F.D. properties file   721 does not exist.
 End of G2Drv F.D. properties file   722 does not exist.
 End of G2Drv F.D. properties file   788 does not exist.
 Leave Link 1110 at Thu Jan  5 15:14:51 2023, MaxMem=  1342177280 cpu:            3159.6 elap:              63.3
 (Enter /shared/gaussian/g16.b01/AVX2/g16/l1002.exe)
 Minotr:  Closed shell wavefunction.
          IDoAtm=111111111111111111111111111
 NEqPCM:  Using equilibrium solvation (IEInf=0, Eps=  78.3553, EpsInf=   1.7778)
          Frozen-core window.
          Direct CPHF calculation.
          Differentiating once with respect to electric field.
                with respect to dipole field.
          Differentiating once with respect to nuclear coordinates.
          Requested convergence is 1.0D-08 RMS, and 1.0D-07 maximum.
          Secondary convergence is 1.0D-12 RMS, and 1.0D-12 maximum.
          NewPWx=T KeepS1=T KeepF1=T KeepIn=T MapXYZ=F SortEE=F KeepMc=T.
         8369 words used for storage of precomputed grid.
 Two-electron integrals replicated using symmetry.
          MDV=    1342177280 using IRadAn=       1.
          Solving linear equations simultaneously, MaxMat=     350.
 FoF2E skips out because all densities are zero.
 CalDSu exits because no D1Ps are significant.
 FoFJK:  IHMeth= 1 ICntrl=       0 DoSepK=T KAlg= 0 I1Cent=           0 FoldK=F
 IRaf=         1 NMat=      81 IRICut=       1 DoRegI=T DoRafI=F ISym2E= 2 IDoP0=3 IntGTp=3.
          There are    84 degrees of freedom in the 1st order CPHF.  IDoFFX=6 NUNeed=    84.
     81 vectors produced by pass  0 Test12= 2.00D-14 1.19D-09 XBig12= 7.41D+01 5.27D+00.
 AX will form    81 AO Fock derivatives at one time.
     81 vectors produced by pass  1 Test12= 2.00D-14 1.19D-09 XBig12= 9.97D+00 4.21D-01.
     81 vectors produced by pass  2 Test12= 2.00D-14 1.19D-09 XBig12= 2.17D-01 5.63D-02.
     81 vectors produced by pass  3 Test12= 2.00D-14 1.19D-09 XBig12= 1.60D-03 3.52D-03.
     81 vectors produced by pass  4 Test12= 2.00D-14 1.19D-09 XBig12= 8.11D-06 2.28D-04.
     81 vectors produced by pass  5 Test12= 2.00D-14 1.19D-09 XBig12= 3.72D-08 1.49D-05.
     63 vectors produced by pass  6 Test12= 2.00D-14 1.19D-09 XBig12= 1.66D-10 9.93D-07.
[...]
 0.00006205,0.00001097,0.00001543,0.00002486,0.00001058,-0.00000578,0.1
 5051251,-0.11142563,-0.07035084,0.00038913,0.00001313,0.00010537,0.000
 00730,-0.00003163,0.00000394,0.00007741,-0.00889868,0.00000764,-0.1501
 9964,0.11811987,-0.00120747,-0.00072958,-0.00035435,0.00089118,0.00036
 894,-0.00014790,-0.00039665,-0.00027684,-0.00003980,0.00020948,0.00005
 151,-0.00003953,0.00006202,-0.00015846,-0.00001194,-0.00021482,0.00009
 314,0.00034909,0.00184862,0.00266538,0.00143355,-0.00033108,-0.0002374
 2,0.00013767,0.00002765,-0.00004423,0.00003449,0.00000565,-0.00002662,
 0.00002341,0.00067060,0.00029521,-0.00050927,0.00001091,-0.00006647,-0
 .00001560,-0.00002513,-0.00000311,-0.00000701,-0.00002174,-0.00000836,
 -0.00000367,0.00000332,-0.00001256,-0.00000513,0.05618014,-0.05289280,
 -0.07615189,0.00059279,0.00009272,0.00002570,-0.00007596,0.00000373,-0
 .00000674,-0.00182382,-0.00214734,0.00166565,-0.08786509,0.06712407,0.
 09185965,-0.00126672,-0.00139985,0.00024196,0.00037616,0.00001942,-0.0
 0035981,-0.00023639,0.00005964,-0.00001666,0.00004494,-0.00006370,0.00
 005758,0.00007601,-0.00007943,0.00008482,-0.00013882,0.00003655,0.0000
 0346,0.00149682,0.00184102,-0.00209370,-0.00006962,-0.00006428,0.00015
 466,0.00002285,-0.00002469,0.00000127,-0.00000100,-0.00000791,-0.00002
 966,0.00003900,0.00004108,-0.00006403,-0.00001357,-0.00000366,-0.00002
 281,0.00000227,-0.00000575,0.00000366,-0.00000334,-0.00000420,0.000002
 34,-0.00000020,-0.00001192,0.00000035,-0.05953319,-0.02600873,-0.11303
 788,0.00010061,-0.00011948,-0.00009768,-0.00005177,0.00001134,-0.00000
 481,-0.00010383,-0.00029279,0.00005425,0.00965467,0.00956643,0.0341978
 5,0.05155000,-0.00078374,-0.00077977,0.00024095,-0.00022459,-0.0002162
 1,-0.00023743,0.00008982,0.00002004,0.00002181,-0.00005244,0.00007301,
 0.00006688,0.00005077,-0.00000129,0.00006724,-0.00020735,0.00004087,-0
 .00005218,0.00053880,-0.00017297,-0.00187058,0.00007596,0.00002975,0.0
 0006195,-0.00002142,0.00000112,-0.00002352,0.00000030,0.00000504,-0.00
 003073,0.00010266,0.00007825,-0.00001109,0.00000121,0.00000092,-0.0000
 1084,0.00000489,-0.00000103,0.00000499,-0.00000251,0.00000063,0.000004
 27,0.00000092,0.00000087,0.00000343,-0.00894258,-0.06156454,-0.1422891
 1,-0.00009014,0.00000788,-0.00000756,0.00001325,-0.00000225,-0.0000013
 5,-0.00003693,0.00009978,-0.00012255,-0.00690052,-0.00591391,-0.020324
 96,0.01520165,0.06789904,0.00167797,0.00147729,0.00020763,-0.00059246,
 -0.00013086,0.00022187,0.00037117,-0.00003259,-0.00003341,-0.00001106,
 0.00008434,0.00003457,-0.00008202,0.00009038,0.00004161,-0.00011454,-0
 .00032345,-0.00016847,-0.00259820,-0.00241656,-0.00027029,0.00015854,0
 .00013813,-0.00012465,-0.00005263,0.00003955,-0.00000994,0.00000458,0.
 00001511,-0.00000488,0.00017440,0.00024493,0.00007167,0.00002304,-0.00
 000717,-0.00000687,-0.00000513,0.00001118,-0.00000126,-0.00000187,0.00
 000704,0.00000340,0.00000197,0.00001727,0.00000102,-0.07363051,-0.1602
 5915,-0.45504120,-0.00011540,0.00001752,-0.00000793,0.00008175,-0.0000
 1646,0.00000538,0.00008052,-0.00024831,0.00002308,-0.00602615,-0.00274
 957,-0.01285325,0.08217381,0.16297777,0.46866059,0.00010675,0.00155101
 ,0.00045921,-0.00043415,0.00137425,0.00195351,-0.00005011,-0.00348060,
 -0.00060313,-0.00112977,0.00155014,-0.00022088,0.00069867,-0.00008852,
 0.00001144,0.00057838,-0.00027348,-0.00029983,-0.00152751,-0.00194775,
 -0.00027672,-0.00043801,-0.00631100,0.00172274,0.00024257,-0.00007110,
 -0.00002639,0.00000307,-0.00007646,0.00007277,-0.00114549,0.00015229,0
 .00003077,0.00029839,-0.00010917,-0.00000307,-0.00008707,-0.00009761,-
 0.00003181,-0.00005175,-0.00010685,-0.00002437,-0.00001022,-0.00002787
 ,-0.00001717,-0.00728561,0.00704741,-0.00408842,-0.23868874,-0.2228696
 3,0.09544719,-0.00024451,-0.00000372,0.00008351,-0.00008161,-0.0002778
 8,0.00001455,0.00172768,-0.00081223,-0.00272148,-0.00069229,0.00111911
 ,0.00054695,0.61591580,-0.00076387,0.00047135,0.00086992,0.00099146,0.
 00304302,0.00240587,-0.00095856,-0.00390780,-0.00080473,-0.00094522,0.
 00154802,-0.00018159,0.00057965,-0.00040768,-0.00013275,0.00118448,0.0
 0039214,-0.00063102,-0.00037536,0.00143214,-0.00104128,-0.00473063,-0.
 00698212,0.00232889,0.00037685,-0.00015122,-0.00006831,-0.00001109,-0.
 00011397,0.00005902,-0.00179675,-0.00013165,0.00013207,0.00025176,-0.0
 0011399,0.00002532,-0.00008505,-0.00011074,-0.00003215,-0.00004050,-0.
 00012089,-0.00002936,-0.00001662,-0.00005614,-0.00002329,0.00601110,-0
 .00154173,0.00258807,-0.17969208,-0.24432256,0.10986766,-0.00041877,0.
 00005102,0.00009542,-0.00011373,0.00009534,0.00000298,-0.00061852,0.00
 064359,0.00167552,0.00086596,-0.00094792,-0.00001489,0.05810467,0.3551
 2603,-0.00017717,-0.00011650,0.00027499,0.00077389,-0.00097955,-0.0005
 5732,0.00002924,0.00138216,-0.00001906,0.00050073,-0.00054264,0.000035
 03,-0.00036135,0.00011438,0.00007505,-0.00041503,-0.00001918,-0.000173
 09,-0.00028465,-0.00068438,-0.00016069,0.00177430,0.00372743,0.0008383
 6,-0.00011833,0.00002405,0.00001328,0.00000196,0.00004429,-0.00000443,
 0.00074042,0.00004518,0.00005936,-0.00007462,0.00002427,-0.00001979,0.
 00002389,0.00004130,0.00001043,0.00000605,0.00003964,0.00001267,0.0000
 0483,0.00001860,0.00000465,-0.00575065,0.00416029,0.00097991,0.0705649
 4,0.10354808,-0.05730879,0.00017619,0.00000325,0.00003603,0.00001493,-
 0.00014019,0.00000292,0.00074170,-0.00034524,-0.00189427,0.00017817,-0
 .00005213,0.00049277,0.05070945,-0.18762636,0.12498789,-0.00048751,-0.
 00096440,-0.00051228,-0.00055740,-0.00103083,-0.00054333,0.00002591,0.
 00121217,0.00025139,0.00022381,-0.00050273,0.00003441,-0.00004824,0.00
 005465,0.00003750,-0.00004926,-0.00006903,0.00023866,0.00207592,0.0013
 9593,0.00054694,0.00117936,0.00095434,-0.00015237,-0.00006869,0.000019
 24,0.00002499,-0.00000139,0.00002511,-0.00003174,0.00014678,-0.0001383
 1,-0.00004368,-0.00010450,0.00005526,0.00000746,0.00003377,0.00002588,
 0.00000993,0.00002259,0.00003121,0.00000164,0.00000223,0.00000541,0.00
 000523,-0.00111332,-0.00304876,0.00104803,-0.03125585,0.01303258,-0.01
 187054,0.00007766,0.00001023,-0.00003998,0.00007000,0.00037269,-0.0000
 0651,-0.00292146,0.00156090,0.00245669,0.00054443,-0.00099969,-0.00137
 481,-0.36737334,0.12115398,-0.11834504,0.39873743,0.00047502,0.0006798
 3,0.00011338,-0.00102247,-0.00076966,0.00031586,0.00055539,-0.00028498
 ,-0.00009198,-0.00014202,0.00024268,-0.00006647,-0.00007352,0.00016331
 ,0.00004135,-0.00022885,-0.00021652,-0.00001255,-0.00124245,-0.0034250
 4,0.00063222,0.00064075,-0.00059284,0.00035896,-0.00006131,0.00003905,
 0.00000411,0.00000759,0.00001448,0.00003029,0.00037017,0.00015843,0.00
 000520,0.00006937,-0.00001352,-0.00000934,-0.00001373,0.00000207,-0.00
 000693,-0.00000841,0.00000369,0.00000220,0.00000195,0.00002164,0.00000
 140,-0.00111376,-0.00123461,-0.00013786,-0.03019086,0.01088011,-0.0094
 0563,0.00010867,-0.00001266,0.00001469,0.00000396,-0.00026060,0.000040
 81,0.00160818,-0.00182487,-0.00275038,-0.00145929,0.00191302,0.0002615
 2,0.16463859,-0.10329325,0.07671506,-0.13196377,0.09667515,-0.00039222
 ,-0.00054734,-0.00038507,0.00020268,0.00013012,-0.00031655,-0.00015594
 ,0.00034661,0.00014964,0.00004757,-0.00018457,0.00000315,0.00006671,-0
 .00002895,0.00001190,0.00001988,0.00001861,0.00020393,0.00112147,0.001
 76308,0.00054951,-0.00007829,0.00042069,-0.00021162,0.00000338,-0.0000
 0956,0.00001942,-0.00000344,0.00000017,-0.00001639,-0.00013257,-0.0001
 0587,-0.00005727,-0.00004763,0.00001256,0.00000408,0.00001156,0.000005
 09,0.00000270,0.00000810,0.00000407,-0.00000118,0.00000017,-0.00000761
 ,0.00000065,0.00288800,-0.00370582,-0.00559265,0.01265823,-0.00357367,
 0.00527188,-0.00003398,0.00000932,-0.00002275,0.00002102,0.00028558,-0
 .00001290,-0.00165107,0.00067593,0.00344816,-0.00114384,0.00121268,-0.
 00185134,-0.14307945,0.07092163,-0.06792847,0.12873414,-0.06649852,0.0
 6725780,-0.00042856,0.00105016,-0.00024440,0.00143306,0.01077516,0.002
 28228,-0.00241798,-0.00674070,-0.00059922,-0.00292024,0.00310890,0.000
 01563,0.00238337,-0.00007470,0.00001195,0.00143794,-0.00119000,-0.0000
 7273,-0.00124174,-0.00097280,-0.00037189,0.00456389,-0.00442706,-0.000
 70461,0.00343912,0.00070477,0.00009385,0.00000860,-0.00019223,0.000030
 17,-0.00293282,0.00005413,-0.00003273,0.00071937,-0.00027396,-0.000037
 69,-0.00019687,-0.00025157,-0.00005484,-0.00015320,-0.00029897,-0.0000
 3866,-0.00003242,-0.00010881,-0.00003902,0.00048057,0.00044468,0.00011
 463,-0.00067262,-0.00113654,0.00042628,-0.31284449,-0.19360679,-0.0417
 6330,-0.00019732,-0.00001166,0.00001645,-0.00016248,0.00003378,0.00008
 819,0.00004333,-0.00001923,-0.00008060,0.00043640,0.00059007,-0.000221
 09,-0.00012775,-0.00008270,0.00000136,0.33054873,-0.00095332,-0.000541
 44,-0.00058535,0.00563451,0.00292221,-0.00151626,-0.00059698,0.0018831
 4,0.00058849,-0.00020638,-0.00204577,-0.00005200,-0.00019642,0.0006182
 1,0.00017007,-0.00066405,-0.00075276,0.00052844,0.00016717,0.00033742,
 0.00033734,-0.00404455,-0.00622372,0.00094118,0.00120287,-0.00676023,-
 0.00091182,0.00004825,0.00009709,-0.00008187,0.00072171,0.00009016,-0.
 00013330,-0.00007099,-0.00007324,-0.00002195,-0.00000910,0.00007717,0.
 00001017,-0.00005819,0.00005244,0.00003001,0.00001815,0.00002409,0.000
 00874,-0.00009219,-0.00015772,-0.00005350,-0.00015234,0.00010212,-0.00
 006003,-0.22378967,-0.17309415,-0.05871406,0.00017410,0.00009083,-0.00
 002640,0.00003635,0.00001982,-0.00001421,-0.00001938,0.00000056,0.0000
 2270,0.00003027,-0.00009291,0.00006080,-0.00000158,0.00004042,-0.00002
 729,0.21037987,0.17790493,0.00066329,-0.00013447,0.00163056,0.00048689
 ,-0.00216958,0.00337914,0.00027013,-0.00134196,-0.00081786,-0.00061762
 ,0.00130037,-0.00029342,0.00041418,-0.00037750,-0.00018064,0.00128142,
 0.00098202,-0.00114873,-0.00011741,-0.00023139,-0.00059433,-0.00084385
 ,0.00174777,-0.00541977,-0.00054696,0.00015820,0.00120389,-0.00004246,
 -0.00000203,0.00018375,-0.00158108,-0.00007392,0.00030669,0.00004548,0
 .00002521,-0.00002978,-0.00002161,-0.00005895,0.00000070,0.00001826,-0
 .00004576,-0.00001837,-0.00000368,-0.00001892,-0.00001031,0.00004653,0
 .00009962,0.00005160,0.00013959,0.00022457,0.00013494,-0.07682507,-0.0
 7886268,-0.05038604,-0.00003909,-0.00001036,0.00004449,-0.00002954,-0.
 00000795,0.00001416,0.00001844,0.00000442,-0.00001224,-0.00010516,-0.0
 0012502,-0.00005310,0.00005089,-0.00002566,0.00001848,0.04909617,0.059
 63279,0.04781914,0.00006481,0.00006587,0.00031606,0.00007884,-0.001279
 54,0.00051783,0.00073699,0.00025110,-0.00011042,-0.00018388,0.00025356
 ,-0.00000672,0.00008600,-0.00007220,-0.00006960,0.00039829,0.00024148,
 -0.00024311,-0.00000978,-0.00007200,-0.00012398,-0.00162221,0.00034407
 ,-0.00089970,-0.00178153,0.00070063,0.00020763,-0.00001607,-0.00000087
 ,0.00003864,-0.00037123,-0.00002260,0.00007410,-0.00001852,0.00002352,
 -0.00000537,0.00000647,-0.00000991,0.00000622,0.00001271,-0.00000285,-
 0.00000246,-0.00000149,-0.00000433,-0.00000096,0.00000995,0.00002703,0
 .00000996,0.00000791,0.00007555,-0.00001397,-0.25424446,0.05071170,0.2
 2067560,-0.00003527,-0.00001620,0.00001296,-0.00000682,-0.00000516,0.0
 0000219,0.00000195,-0.00000002,-0.00000374,-0.00002255,-0.00004336,0.0
 0000585,0.00001301,-0.00000371,0.00000683,-0.02135232,0.01253861,0.028
 22257,0.27823529,0.00035781,0.00012512,0.00007189,-0.00082800,-0.00138
 611,-0.00022063,0.00195644,-0.00111052,0.00060465,0.00037910,0.0004188
 3,0.00006828,-0.00001389,-0.00017237,0.00002505,-0.00021314,0.00001664
 ,-0.00004127,0.00004561,-0.00001254,0.00001574,-0.00120460,0.00068784,
 -0.00039607,-0.00124029,0.00194624,-0.00162351,-0.00001860,-0.00002984
 ,-0.00002727,0.00021502,0.00000237,0.00000502,0.00000398,0.00003801,-0
 .00001148,0.00001903,-0.00000460,0.00000646,0.00001776,-0.00000885,-0.
 00000042,-0.00000434,-0.00000023,0.00000124,0.00000365,0.00000523,0.00
 000368,0.00001327,0.00003758,0.00002555,0.08198840,-0.05257969,-0.1090
 5191,-0.00001685,-0.00001155,0.00000033,-0.00000070,-0.00000224,-0.000
 00004,0.00000040,0.00000136,-0.00000050,0.00000341,-0.00000918,-0.0000
 1159,0.00000122,-0.00000132,-0.00000052,-0.01776774,0.00553950,0.01931
 273,-0.06370719,0.04650301,-0.00026634,0.00008419,-0.00007600,0.000247
 17,0.00018297,-0.00063731,-0.00117973,0.00151929,0.00020265,-0.0001166
 8,-0.00057962,-0.00006727,0.00005678,0.00022982,0.00011819,-0.00032744
 ,-0.00037640,0.00014151,0.00008350,0.00010646,0.00011552,-0.00151238,-
 0.00058699,0.00016034,0.00105567,-0.00134765,-0.00002895,0.00002003,0.
 00003148,-0.00002241,0.00033123,0.00005383,-0.00006085,-0.00004747,0.0
 0000247,-0.00000403,0.00000624,0.00002588,0.00000281,-0.00000616,0.000
 01813,0.00000398,0.00000519,0.00000648,0.00000365,-0.00003228,-0.00004
 513,-0.00001715,0.00003947,0.00003347,-0.00001046,0.25813040,-0.090459
 33,-0.26790294,0.00004122,0.00001742,-0.00000583,0.00001117,0.00000266
 ,-0.00000656,-0.00000673,-0.00000017,0.00000983,-0.00001386,-0.0000111
 3,0.00000529,0.00000216,0.00000816,-0.00000325,-0.00788938,-0.00014925
 ,0.00420560,-0.24860860,0.09124423,0.26386834,0.00222447,-0.00182009,0
 .00023774,-0.00373631,-0.00107141,-0.00016696,0.00087733,0.00223803,0.
 00023736,-0.00419789,-0.00084471,-0.00016763,0.00269209,0.00118988,0.0
 0056567,0.00485779,-0.00409254,-0.00017633,0.00177850,0.00084385,-0.00
 016628,0.00028221,-0.00036626,0.00005189,0.00035187,-0.00004317,-0.000
 04386,-0.00018288,0.00014955,-0.00019693,-0.01752625,-0.00821144,0.002
 08460,-0.00029589,0.00076301,0.00011007,0.00024647,-0.00014094,0.00011
 024,0.00017754,-0.00015190,-0.00006898,-0.00008948,-0.00012686,0.00000
 241,-0.00998307,0.01451013,0.00800569,0.00016198,-0.00012461,0.0000454
 3,-0.00025591,0.00012224,0.00000796,-0.20295588,-0.21791535,0.00449234
 ,-0.00244993,-0.00980035,-0.00421238,-0.00185247,0.00099591,-0.0006193
 5,-0.00073490,0.00051218,-0.00047664,0.00094704,-0.00089106,0.00089952
 ,0.00019830,-0.00010007,0.00001336,0.00001297,0.00001142,-0.00002350,0
 .33471533,0.00390071,-0.00089200,0.00031223,-0.00514815,-0.00116565,-0
 .00013946,0.00180026,0.00212739,0.00028911,-0.00402113,-0.00059143,-0.
 00024690,0.00255385,0.00136861,0.00069773,0.00251711,-0.00468717,0.000
 25921,-0.00159134,-0.00215941,-0.00047988,0.00078046,-0.00029798,-0.00
 005893,0.00018832,0.00005130,-0.00003596,-0.00015368,0.00017009,-0.000
 17298,-0.01658666,-0.00212514,0.00143275,-0.00020014,0.00068402,0.0001
 1772,0.00021206,-0.00013766,0.00009933,0.00015473,-0.00012588,-0.00006
 211,-0.00006380,-0.00008398,0.00000312,0.01542448,-0.01024491,-0.00953
 890,-0.00023271,-0.00009461,0.00000297,-0.00007111,0.00007984,0.000012
 40,-0.19997328,-0.25597178,-0.02037082,-0.00781432,0.00121564,0.009576
 34,0.00199707,-0.00066729,0.00064440,0.00083821,-0.00041774,0.00046687
 ,-0.00102056,0.00092325,-0.00092663,0.00001983,-0.00005670,-0.00000321
 ,0.00000534,0.00000724,-0.00001071,0.21971537,0.30730499,-0.00034993,0
 .00097038,0.00037606,0.00014312,-0.00020936,0.00040404,0.00025891,0.00
 002645,-0.00006138,0.00010985,-0.00004397,0.00005346,0.00040781,0.0000
 8368,0.00006145,-0.00125939,-0.00012504,-0.00027593,-0.00087337,-0.000
 55945,-0.00035709,0.00010017,0.00024639,-0.00009931,-0.00006193,0.0000
 4121,-0.00005192,0.00006686,0.00001794,-0.00011445,0.00509763,0.002922
 25,0.00212954,0.00011178,-0.00013575,0.00008673,-0.00001482,0.00001157
 ,-0.00000266,-0.00007165,-0.00000121,0.00002819,0.00000743,0.00002119,
 0.00000785,0.00993978,-0.00928554,0.00018383,-0.00012065,-0.00000043,-
 0.00001913,0.00006798,-0.00002719,0.00002278,0.03180949,0.01311209,-0.
 04414841,-0.00337955,0.00704539,-0.00556731,-0.00022132,0.00030040,0.0
 0058801,0.00051338,-0.00029129,0.00032884,-0.00060595,0.00052171,-0.00
 059665,-0.00004526,0.00002506,-0.00002833,-0.00000970,0.00000021,0.000
 00714,-0.22189479,0.03726329,0.48389182,0.00006936,0.00016686,-0.00009
 119,-0.00000201,0.00011506,-0.00014902,0.00001813,-0.00011627,0.000021
 52,0.00013366,0.00004470,-0.00002756,-0.00020851,-0.00000320,-0.000030
 45,0.00025193,-0.00043713,0.00025777,0.00003446,-0.00001680,0.00008388
 ,0.00000995,-0.00004142,0.00004005,-0.00002269,0.00000479,0.00001400,-
 0.00001324,-0.00000385,0.00002770,-0.00089927,-0.00079081,-0.00049856,
 -0.00000579,-0.00000837,-0.00001452,-0.00000696,0.00001240,-0.00000746
 ,0.00000254,0.00000809,-0.00000063,-0.00000049,0.00000123,-0.00000224,
 -0.00024288,0.00085780,-0.00011200,0.00000455,0.00000711,0.00000206,0.
 00001244,-0.00000514,-0.00000614,-0.01069429,0.00528017,0.02758205,-0.
 00138087,-0.00034482,0.00164836,0.00001018,0.00008590,0.00001375,-0.00
 001009,-0.00001205,-0.00002195,0.00000877,0.00001826,0.00002781,-0.000
 01188,0.00000336,0.00000633,0.00000093,-0.00000117,0.00000032,-0.10526
 301,-0.01323091,0.18027412,0.11820506,0.00024471,-0.00009283,-0.000022
 24,-0.00015870,0.00001436,-0.00005872,0.00003057,0.00001165,0.00002455
 ,-0.00005207,-0.00000647,0.00002537,-0.00012878,0.00002578,-0.00009098
 ,0.00023938,-0.00011914,-0.00000150,-0.00028757,-0.00027463,-0.0000522
 9,0.00001711,-0.00001704,-0.00000154,0.00000548,0.00000098,0.00000221,
 -0.00001721,0.00000268,0.00001674,-0.00164950,-0.00096443,-0.00010843,
 -0.00003053,0.00004203,-0.00001556,0.00000805,0.00000199,0.00000462,0.
 00001952,0.00000143,-0.00000765,-0.00000116,-0.00000194,-0.00000047,0.
 00317723,-0.00283667,-0.00023373,-0.00002720,-0.00001263,0.00000052,0.
 00000025,0.00000266,-0.00000149,-0.01193963,0.00385168,0.03107564,-0.0
 0239876,0.00422295,-0.00225319,-0.00007550,0.00009504,0.00015038,0.000
 14447,-0.00008117,0.00010210,-0.00017115,0.00017275,-0.00018981,-0.000
 00589,-0.00000147,0.00000166,0.00000145,0.00000006,-0.00000053,0.00464
 919,-0.03421304,-0.05192998,0.00840622,0.03017542,0.00012836,-0.000432
 58,0.00001629,-0.00007534,-0.00000252,0.00008741,-0.00010703,0.0000759
 8,0.00001454,-0.00010217,0.00000453,0.00001197,-0.00001541,-0.00006974
 ,-0.00006781,0.00033489,0.00071101,-0.00017358,0.00018728,0.00000613,-
 0.00001639,-0.00001558,-0.00008147,-0.00002788,0.00003509,-0.00001375,
 -0.00000038,-0.00000611,-0.00000475,-0.00000659,-0.00117661,-0.0011327
 4,0.00049600,-0.00003695,0.00004595,0.00001173,0.00002082,-0.00000636,
 0.00000992,0.00001967,-0.00000152,-0.00000538,-0.00000081,-0.00000564,
 0.00000093,-0.00144641,0.00135782,0.00081900,0.00001030,-0.00001419,0.
 00000899,-0.00002537,0.00001201,-0.00000143,-0.00156182,-0.00278780,-0
 .00316350,0.00155276,-0.00213204,-0.00137729,-0.00007368,0.00006742,0.
 00002429,-0.00005375,0.00004081,-0.00003845,0.00007616,-0.00006160,0.0
 0005478,0.00001845,-0.00000849,-0.00000024,0.00000189,0.00000017,-0.00
 000184,0.21134935,-0.01913098,-0.43684720,-0.20903799,0.02356434,0.440
 17211\\0.00771696,0.04700133,0.00471703,-0.04236340,-0.02820548,-0.005
 05554,0.00297822,0.05004669,0.00451502,-0.02611970,-0.03996548,-0.0041
 3865,0.04804443,0.03281395,0.00528304,-0.09062580,-0.09798436,-0.01260
 462,0.00745159,0.00962671,0.00304147,0.01121163,0.00737405,0.00130245,
 0.00271306,0.00097402,0.00003855,0.00095262,0.00175941,0.00027421,0.08
 055500,0.01421308,0.00432885,-0.00035344,0.00264692,0.00000061,0.00054
 660,-0.00070648,0.00035340,0.00061855,-0.00061334,-0.00042987,-0.00027
 098,-0.00013321,-0.00000423,-0.00276323,-0.00256737,-0.00072244,0.0016
 9178,0.00380411,-0.00104231,0.00189766,0.00100838,0.00015472,0.0008637
 1,-0.00027477,-0.00092678,0.00094432,-0.00018823,-0.00042181,-0.000275
 99,-0.00001895,0.00038407,-0.00123925,-0.00176645,0.00061911,0.0003282
 7,0.00041319,-0.00013252,-0.00440098,-0.00019386,-0.00019855,0.0000402
 1,0.00029761,0.00012591,-0.00004858,0.00067693,0.00065427,-0.00009327,
 -0.00003841,-0.00011541\\\@


 YOU KNOW YOU'RE A TEACHER WHEN YOU SAY 2, WRITE 3, AND MEAN 4.
 -- RONALD ANSTROM, HIGH SCHOOL TEACHER, UNDERWOOD, N.D. 1974
 Job cpu time:       0 days  8 hours 57 minutes 56.8 seconds.
 Elapsed time:       0 days  0 hours 10 minutes 48.0 seconds.
 File lengths (MBytes):  RWF=   1804 Int=      0 D2E=      0 Chk=     62 Scr=      1
 Normal termination of Gaussian 16 at Thu Jan  5 15:21:07 2023.
