Cytosine TDDFT excited state 5                                          
Freq      RCAM-B3LYP TD-FC                                            6-311+G(d,p)        
Number of atoms                            I               13
Info1-9                                    I   N=           9
          22          22           0           0           0         100
           6         218        4001
Full Title                                 C   N=           3
Cytosine TDDFT excited state 5      
Route                                      C   N=           6
#p freq td=(nstates=10,root=5) cam-b3lyp/6-311+G(d,p) symm=l
oose        
Charge                                     I                0
Multiplicity                               I                1
Number of electrons                        I               58
Number of alpha electrons                  I               29
Number of beta electrons                   I               29
Number of basis functions                  I              206
Number of independent functions            I              206
Number of point charges in /Mol/           I                0
Number of translation vectors              I                0
Atomic numbers                             I   N=          13
           6           6           6           6           7           7
           7           8           1           1           1           1
           1
Nuclear charges                            R   N=          13
  6.00000000E+00  6.00000000E+00  6.00000000E+00  6.00000000E+00  7.00000000E+00
  7.00000000E+00  7.00000000E+00  8.00000000E+00  1.00000000E+00  1.00000000E+00
  1.00000000E+00  1.00000000E+00  1.00000000E+00
Current cartesian coordinates              R   N=          39
 -1.25757494E-01 -3.23998646E+00  3.11679490E-17 -2.30358937E+00  8.15441389E-01
 -8.73074805E-18  2.08156545E+00  6.43816463E-01 -5.41275606E-18  2.13898100E+00
 -2.07326955E+00  2.07868287E-17 -2.27466145E+00 -1.86168070E+00  1.70729908E-17
 -2.47770504E-16  1.97959016E+00 -1.90723790E-17  4.29283415E+00  1.92561958E+00
 -1.69229710E-17 -4.32882776E+00  1.88012821E+00 -1.97572017E-17 -3.99190282E+00
 -2.69012529E+00  2.44028363E-17  3.88709105E+00 -3.12499285E+00  3.15831958E-17
 -3.33789884E-01 -5.27523284E+00  5.06975872E-17  5.97068418E+00  1.04179467E+00
 -7.77089109E-18  4.22412370E+00  3.82682579E+00 -3.52662411E-17
Number of symbols in /Mol/                 I                0
Force Field                                I                0
Atom Types                                 C   N=          13
                                                            
                                                            
                                    
Int Atom Types                             I   N=          13
           0           0           0           0           0           0
           0           0           0           0           0           0
           0
MM charges                                 R   N=          13
  0.00000000E+00  0.00000000E+00  0.00000000E+00  0.00000000E+00  0.00000000E+00
  0.00000000E+00  0.00000000E+00  0.00000000E+00  0.00000000E+00  0.00000000E+00
  0.00000000E+00  0.00000000E+00  0.00000000E+00
Integer atomic weights                     I   N=          13
          12          12          12          12          14          14
          14          16           1           1           1           1
           1
Real atomic weights                        R   N=          13
  1.20000000E+01  1.20000000E+01  1.20000000E+01  1.20000000E+01  1.40030740E+01
  1.40030740E+01  1.40030740E+01  1.59949146E+01  1.00782504E+00  1.00782504E+00
  1.00782504E+00  1.00782504E+00  1.00782504E+00
Atom fragment info                         I   N=          13
           0           0           0           0           0           0
           0           0           0           0           0           0
           0
Atom residue num                           I   N=          13
           0           0           0           0           0           0
           0           0           0           0           0           0
           0
Nuclear spins                              I   N=          13
           0           0           0           0           2           2
           2           0           1           1           1           1
           1
Nuclear ZEff                               R   N=          13
 -3.60000000E+00 -3.60000000E+00 -3.60000000E+00 -3.60000000E+00 -4.55000000E+00
 -4.55000000E+00 -4.55000000E+00 -5.60000000E+00 -1.00000000E+00 -1.00000000E+00
 -1.00000000E+00 -1.00000000E+00 -1.00000000E+00
Nuclear ZNuc                               R   N=          13
  6.00000000E+00  6.00000000E+00  6.00000000E+00  6.00000000E+00  7.00000000E+00
  7.00000000E+00  7.00000000E+00  8.00000000E+00  1.00000000E+00  1.00000000E+00
  1.00000000E+00  1.00000000E+00  1.00000000E+00
Nuclear QMom                               R   N=          13
  0.00000000E+00  0.00000000E+00  0.00000000E+00  0.00000000E+00  2.04400000E+00
  2.04400000E+00  2.04400000E+00  0.00000000E+00  0.00000000E+00  0.00000000E+00
  0.00000000E+00  0.00000000E+00  0.00000000E+00
Nuclear GFac                               R   N=          13
  0.00000000E+00  0.00000000E+00  0.00000000E+00  0.00000000E+00  4.03761000E-01
  4.03761000E-01  4.03761000E-01  0.00000000E+00  2.79284600E+00  2.79284600E+00
  2.79284600E+00  2.79284600E+00  2.79284600E+00
MicOpt                                     I   N=          13
          -1          -1          -1          -1          -1          -1
          -1          -1          -1          -1          -1          -1
          -1
Number of residues                         I                0
Number of secondary structures             I                0
SymInf integers                            I   N=          26
           1           2           1           1           1           1
           1          -1           0           0           0           0
           0           0           0           0           0           0
           0           0           0           0           0           0
           0           0
RotTr to input orientation                 R   N=          12
  1.00000000E+00 -8.22935176E-08  3.79570052E-19  8.22935176E-08  1.00000000E+00
 -9.63450967E-18 -3.79569260E-19  9.63450970E-18  1.00000000E+00 -1.62907425E-07
  1.62907424E-07  0.00000000E+00
Number of contracted shells                I               68
Number of primitive shells                 I              134
Pure/Cartesian d shells                    I                0
Pure/Cartesian f shells                    I                0
Highest angular momentum                   I                2
Largest degree of contraction              I                6
Shell types                                I   N=          68
           0          -1          -1          -1          -1          -2
           0          -1          -1          -1          -1          -2
           0          -1          -1          -1          -1          -2
           0          -1          -1          -1          -1          -2
           0          -1          -1          -1          -1          -2
           0          -1          -1          -1          -1          -2
           0          -1          -1          -1          -1          -2
           0          -1          -1          -1          -1          -2
           0           0           0           1           0           0
           0           1           0           0           0           1
           0           0           0           1           0           0
           0           1
Number of primitives per shell             I   N=          68
           6           3           1           1           1           1
           6           3           1           1           1           1
           6           3           1           1           1           1
           6           3           1           1           1           1
           6           3           1           1           1           1
           6           3           1           1           1           1
           6           3           1           1           1           1
           6           3           1           1           1           1
           3           1           1           1           3           1
           1           1           3           1           1           1
           3           1           1           1           3           1
           1           1
Shell to atom map                          I   N=          68
           1           1           1           1           1           1
           2           2           2           2           2           2
           3           3           3           3           3           3
           4           4           4           4           4           4
           5           5           5           5           5           5
           6           6           6           6           6           6
           7           7           7           7           7           7
           8           8           8           8           8           8
           9           9           9           9          10          10
          10          10          11          11          11          11
          12          12          12          12          13          13
          13          13
Primitive exponents                        R   N=         134
  4.56324000E+03  6.82024000E+02  1.54973000E+02  4.44553000E+01  1.30290000E+01
  1.82773000E+00  2.09642000E+01  4.80331000E+00  1.45933000E+00  4.83456000E-01
  1.45585000E-01  4.38000000E-02  6.26000000E-01  4.56324000E+03  6.82024000E+02
  1.54973000E+02  4.44553000E+01  1.30290000E+01  1.82773000E+00  2.09642000E+01
  4.80331000E+00  1.45933000E+00  4.83456000E-01  1.45585000E-01  4.38000000E-02
  6.26000000E-01  4.56324000E+03  6.82024000E+02  1.54973000E+02  4.44553000E+01
  1.30290000E+01  1.82773000E+00  2.09642000E+01  4.80331000E+00  1.45933000E+00
  4.83456000E-01  1.45585000E-01  4.38000000E-02  6.26000000E-01  4.56324000E+03
  6.82024000E+02  1.54973000E+02  4.44553000E+01  1.30290000E+01  1.82773000E+00
  2.09642000E+01  4.80331000E+00  1.45933000E+00  4.83456000E-01  1.45585000E-01
  4.38000000E-02  6.26000000E-01  6.29348000E+03  9.49044000E+02  2.18776000E+02
  6.36916000E+01  1.88282000E+01  2.72023000E+00  3.06331000E+01  7.02614000E+00
  2.11205000E+00  6.84009000E-01  2.00878000E-01  6.39000000E-02  9.13000000E-01
  6.29348000E+03  9.49044000E+02  2.18776000E+02  6.36916000E+01  1.88282000E+01
  2.72023000E+00  3.06331000E+01  7.02614000E+00  2.11205000E+00  6.84009000E-01
  2.00878000E-01  6.39000000E-02  9.13000000E-01  6.29348000E+03  9.49044000E+02
  2.18776000E+02  6.36916000E+01  1.88282000E+01  2.72023000E+00  3.06331000E+01
  7.02614000E+00  2.11205000E+00  6.84009000E-01  2.00878000E-01  6.39000000E-02
  9.13000000E-01  8.58850000E+03  1.29723000E+03  2.99296000E+02  8.73771000E+01
  2.56789000E+01  3.74004000E+00  4.21175000E+01  9.62837000E+00  2.85332000E+00
  9.05661000E-01  2.55611000E-01  8.45000000E-02  1.29200000E+00  3.38650000E+01
  5.09479000E+00  1.15879000E+00  3.25840000E-01  1.02741000E-01  7.50000000E-01
  3.38650000E+01  5.09479000E+00  1.15879000E+00  3.25840000E-01  1.02741000E-01
  7.50000000E-01  3.38650000E+01  5.09479000E+00  1.15879000E+00  3.25840000E-01
  1.02741000E-01  7.50000000E-01  3.38650000E+01  5.09479000E+00  1.15879000E+00
  3.25840000E-01  1.02741000E-01  7.50000000E-01  3.38650000E+01  5.09479000E+00
  1.15879000E+00  3.25840000E-01  1.02741000E-01  7.50000000E-01
Contraction coefficients                   R   N=         134
  1.96665025E-03  1.52306019E-02  7.61269097E-02  2.60801033E-01  6.16462078E-01
  2.21006028E-01  1.14660081E-01  9.19999648E-01 -3.03068213E-03  1.00000000E+00
  1.00000000E+00  1.00000000E+00  1.00000000E+00  1.96665025E-03  1.52306019E-02
  7.61269097E-02  2.60801033E-01  6.16462078E-01  2.21006028E-01  1.14660081E-01
  9.19999648E-01 -3.03068213E-03  1.00000000E+00  1.00000000E+00  1.00000000E+00
  1.00000000E+00  1.96665025E-03  1.52306019E-02  7.61269097E-02  2.60801033E-01
  6.16462078E-01  2.21006028E-01  1.14660081E-01  9.19999648E-01 -3.03068213E-03
  1.00000000E+00  1.00000000E+00  1.00000000E+00  1.00000000E+00  1.96665025E-03
  1.52306019E-02  7.61269097E-02  2.60801033E-01  6.16462078E-01  2.21006028E-01
  1.14660081E-01  9.19999648E-01 -3.03068213E-03  1.00000000E+00  1.00000000E+00
  1.00000000E+00  1.00000000E+00  1.96978815E-03  1.49612859E-02  7.35005308E-02
  2.48936766E-01  6.02459433E-01  2.56201759E-01  1.11906080E-01  9.21666655E-01
 -2.56919183E-03  1.00000000E+00  1.00000000E+00  1.00000000E+00  1.00000000E+00
  1.96978815E-03  1.49612859E-02  7.35005308E-02  2.48936766E-01  6.02459433E-01
  2.56201759E-01  1.11906080E-01  9.21666655E-01 -2.56919183E-03  1.00000000E+00
  1.00000000E+00  1.00000000E+00  1.00000000E+00  1.96978815E-03  1.49612859E-02
  7.35005308E-02  2.48936766E-01  6.02459433E-01  2.56201759E-01  1.11906080E-01
  9.21666655E-01 -2.56919183E-03  1.00000000E+00  1.00000000E+00  1.00000000E+00
  1.00000000E+00  1.89515008E-03  1.43859006E-02  7.07320031E-02  2.40001011E-01
  5.94797026E-01  2.80802012E-01  1.13889012E-01  9.20811101E-01 -3.27447036E-03
  1.00000000E+00  1.00000000E+00  1.00000000E+00  1.00000000E+00  2.54938145E-02
  1.90373109E-01  8.52161486E-01  1.00000000E+00  1.00000000E+00  1.00000000E+00
  2.54938145E-02  1.90373109E-01  8.52161486E-01  1.00000000E+00  1.00000000E+00
  1.00000000E+00  2.54938145E-02  1.90373109E-01  8.52161486E-01  1.00000000E+00
  1.00000000E+00  1.00000000E+00  2.54938145E-02  1.90373109E-01  8.52161486E-01
  1.00000000E+00  1.00000000E+00  1.00000000E+00  2.54938145E-02  1.90373109E-01
  8.52161486E-01  1.00000000E+00  1.00000000E+00  1.00000000E+00
P(S=P) Contraction coefficients            R   N=         134
  0.00000000E+00  0.00000000E+00  0.00000000E+00  0.00000000E+00  0.00000000E+00
  0.00000000E+00  4.02486927E-02  2.37593957E-01  8.15853851E-01  1.00000000E+00
  1.00000000E+00  1.00000000E+00  0.00000000E+00  0.00000000E+00  0.00000000E+00
  0.00000000E+00  0.00000000E+00  0.00000000E+00  0.00000000E+00  4.02486927E-02
  2.37593957E-01  8.15853851E-01  1.00000000E+00  1.00000000E+00  1.00000000E+00
  0.00000000E+00  0.00000000E+00  0.00000000E+00  0.00000000E+00  0.00000000E+00
  0.00000000E+00  0.00000000E+00  4.02486927E-02  2.37593957E-01  8.15853851E-01
  1.00000000E+00  1.00000000E+00  1.00000000E+00  0.00000000E+00  0.00000000E+00
  0.00000000E+00  0.00000000E+00  0.00000000E+00  0.00000000E+00  0.00000000E+00
  4.02486927E-02  2.37593957E-01  8.15853851E-01  1.00000000E+00  1.00000000E+00
  1.00000000E+00  0.00000000E+00  0.00000000E+00  0.00000000E+00  0.00000000E+00
  0.00000000E+00  0.00000000E+00  0.00000000E+00  3.83119186E-02  2.37403116E-01
  8.17592398E-01  1.00000000E+00  1.00000000E+00  1.00000000E+00  0.00000000E+00
  0.00000000E+00  0.00000000E+00  0.00000000E+00  0.00000000E+00  0.00000000E+00
  0.00000000E+00  3.83119186E-02  2.37403116E-01  8.17592398E-01  1.00000000E+00
  1.00000000E+00  1.00000000E+00  0.00000000E+00  0.00000000E+00  0.00000000E+00
  0.00000000E+00  0.00000000E+00  0.00000000E+00  0.00000000E+00  3.83119186E-02
  2.37403116E-01  8.17592398E-01  1.00000000E+00  1.00000000E+00  1.00000000E+00
  0.00000000E+00  0.00000000E+00  0.00000000E+00  0.00000000E+00  0.00000000E+00
  0.00000000E+00  0.00000000E+00  3.65113974E-02  2.37152983E-01  8.19701941E-01
  1.00000000E+00  1.00000000E+00  1.00000000E+00  0.00000000E+00  0.00000000E+00
  0.00000000E+00  0.00000000E+00  0.00000000E+00  0.00000000E+00  0.00000000E+00
  0.00000000E+00  0.00000000E+00  0.00000000E+00  0.00000000E+00  0.00000000E+00
  0.00000000E+00  0.00000000E+00  0.00000000E+00  0.00000000E+00  0.00000000E+00
  0.00000000E+00  0.00000000E+00  0.00000000E+00  0.00000000E+00  0.00000000E+00
  0.00000000E+00  0.00000000E+00  0.00000000E+00  0.00000000E+00  0.00000000E+00
  0.00000000E+00  0.00000000E+00  0.00000000E+00  0.00000000E+00
Coordinates of each shell                  R   N=         204
 -1.25757065E-01 -3.23998664E+00 -2.30089332E-34 -1.25757065E-01 -3.23998664E+00
 -2.30089332E-34 -1.25757065E-01 -3.23998664E+00 -2.30089332E-34 -1.25757065E-01
 -3.23998664E+00 -2.30089332E-34 -1.25757065E-01 -3.23998664E+00 -2.30089332E-34
 -1.25757065E-01 -3.23998664E+00 -2.30089332E-34 -2.30358928E+00  8.15441037E-01
 -4.21472399E-33 -2.30358928E+00  8.15441037E-01 -4.21472399E-33 -2.30358928E+00
  8.15441037E-01 -4.21472399E-33 -2.30358928E+00  8.15441037E-01 -4.21472399E-33
 -2.30358928E+00  8.15441037E-01 -4.21472399E-33 -2.30358928E+00  8.15441037E-01
 -4.21472399E-33  2.08156556E+00  6.43816471E-01  3.80850197E-33  2.08156556E+00
  6.43816471E-01  3.80850197E-33  2.08156556E+00  6.43816471E-01  3.80850197E-33
  2.08156556E+00  6.43816471E-01  3.80850197E-33  2.08156556E+00  6.43816471E-01
  3.80850197E-33  2.08156556E+00  6.43816471E-01  3.80850197E-33  2.13898133E+00
 -2.07326954E+00  3.91355179E-33  2.13898133E+00 -2.07326954E+00  3.91355179E-33
  2.13898133E+00 -2.07326954E+00  3.91355179E-33  2.13898133E+00 -2.07326954E+00
  3.91355179E-33  2.13898133E+00 -2.07326954E+00  3.91355179E-33  2.13898133E+00
 -2.07326954E+00  3.91355179E-33 -2.27466113E+00 -1.86168105E+00 -4.16179608E-33
 -2.27466113E+00 -1.86168105E+00 -4.16179608E-33 -2.27466113E+00 -1.86168105E+00
 -4.16179608E-33 -2.27466113E+00 -1.86168105E+00 -4.16179608E-33 -2.27466113E+00
 -1.86168105E+00 -4.16179608E-33 -2.27466113E+00 -1.86168105E+00 -4.16179608E-33
 -2.19019400E-18  1.97959000E+00  0.00000000E+00 -2.19019400E-18  1.97959000E+00
  0.00000000E+00 -2.19019400E-18  1.97959000E+00  0.00000000E+00 -2.19019400E-18
  1.97959000E+00  0.00000000E+00 -2.19019400E-18  1.97959000E+00  0.00000000E+00
 -2.19019400E-18  1.97959000E+00  0.00000000E+00  4.29283415E+00  1.92561977E+00
  7.85431294E-33  4.29283415E+00  1.92561977E+00  7.85431294E-33  4.29283415E+00
  1.92561977E+00  7.85431294E-33  4.29283415E+00  1.92561977E+00  7.85431294E-33
  4.29283415E+00  1.92561977E+00  7.85431294E-33  4.29283415E+00  1.92561977E+00
  7.85431294E-33 -4.32882775E+00  1.88012769E+00 -7.92016804E-33 -4.32882775E+00
  1.88012769E+00 -7.92016804E-33 -4.32882775E+00  1.88012769E+00 -7.92016804E-33
 -4.32882775E+00  1.88012769E+00 -7.92016804E-33 -4.32882775E+00  1.88012769E+00
 -7.92016804E-33 -4.32882775E+00  1.88012769E+00 -7.92016804E-33 -3.99190243E+00
 -2.69012579E+00 -7.30371821E-33 -3.99190243E+00 -2.69012579E+00 -7.30371821E-33
 -3.99190243E+00 -2.69012579E+00 -7.30371821E-33 -3.99190243E+00 -2.69012579E+00
 -7.30371821E-33  3.88709147E+00 -3.12499269E+00  7.11195256E-33  3.88709147E+00
 -3.12499269E+00  7.11195256E-33  3.88709147E+00 -3.12499269E+00  7.11195256E-33
  3.88709147E+00 -3.12499269E+00  7.11195256E-33 -3.33789287E-01 -5.27523303E+00
 -6.10712044E-34 -3.33789287E-01 -5.27523303E+00 -6.10712044E-34 -3.33789287E-01
 -5.27523303E+00 -6.10712044E-34 -3.33789287E-01 -5.27523303E+00 -6.10712044E-34
  5.97068425E+00  1.04179500E+00  1.09241636E-32  5.97068425E+00  1.04179500E+00
  1.09241636E-32  5.97068425E+00  1.04179500E+00  1.09241636E-32  5.97068425E+00
  1.04179500E+00  1.09241636E-32  4.22412355E+00  3.82682598E+00  7.72859773E-33
  4.22412355E+00  3.82682598E+00  7.72859773E-33  4.22412355E+00  3.82682598E+00
  7.72859773E-33  4.22412355E+00  3.82682598E+00  7.72859773E-33
Num ILSW                                   I              100
ILSW                                       I   N=         100
           0           0           0           0           2           0
           0           0           0           0       20419          -1
           5           0           0           0           2           0
           0           0           0           0           1           0
           1           0           0           0           0           0
           0           0      100000           0          -1           0
           0           0           0           0           0           0
           0           0           0           1           0           0
           0 -2000000000           1           0           0           0
           0           0           4          52           0           0
           0           0          40           0           0           0
           0           0           0          13           0           1
           0           0           0           0           0           0
           0           0           0           0           0           0
           0           0           0           0           0           0
           0           0           0           0           0           0
           0           0           0           0
Num RLSW                                   I               52
RLSW                                       R   N=          52
  1.00000000E+00  1.00000000E+00  1.00000000E+00  8.10000000E-01  1.00000000E+00
  0.00000000E+00  3.30000000E-01  1.90000000E-01  0.00000000E+00  4.60000000E-01
  0.00000000E+00  3.30000000E-01  1.90000000E-01  0.00000000E+00  4.60000000E-01
  0.00000000E+00  0.00000000E+00  1.00000000E+00  0.00000000E+00  0.00000000E+00
  0.00000000E+00  0.00000000E+00  1.00000000E+00  0.00000000E+00  0.00000000E+00
  0.00000000E+00  0.00000000E+00  1.00000000E+00  0.00000000E+00  0.00000000E+00
  0.00000000E+00  0.00000000E+00  1.00000000E+00  0.00000000E+00  0.00000000E+00
  0.00000000E+00  0.00000000E+00  0.00000000E+00  1.00000000E+00  1.00000000E+00
  0.00000000E+00  1.00000000E+00  0.00000000E+00  0.00000000E+00  0.00000000E+00
  0.00000000E+00  0.00000000E+00  0.00000000E+00  0.00000000E+00  0.00000000E+00
  0.00000000E+00  0.00000000E+00
MxBond                                     I                3
NBond                                      I   N=          13
           3           3           3           3           3           2
           3           1           1           1           1           1
           1
IBond                                      I   N=          39
           4           5          11           5           6           8
           4           6           7           1           3          10
           1           2           9           2           3           0
           3          12          13           2           0           0
           5           0           0           4           0           0
           1           0           0           7           0           0
           7           0           0
RBond                                      R   N=          39
  2.00000000E+00  1.50000000E+00  1.00000000E+00  1.00000000E+00  1.50000000E+00
  2.00000000E+00  1.00000000E+00  2.00000000E+00  1.50000000E+00  2.00000000E+00
  1.00000000E+00  1.00000000E+00  1.50000000E+00  1.00000000E+00  1.00000000E+00
  1.50000000E+00  2.00000000E+00  0.00000000E+00  1.50000000E+00  1.00000000E+00
  1.00000000E+00  2.00000000E+00  0.00000000E+00  0.00000000E+00  1.00000000E+00
  0.00000000E+00  0.00000000E+00  1.00000000E+00  0.00000000E+00  0.00000000E+00
  1.00000000E+00  0.00000000E+00  0.00000000E+00  1.00000000E+00  0.00000000E+00
  0.00000000E+00  1.00000000E+00  0.00000000E+00  0.00000000E+00
Virial Ratio                               R      2.003051910048780E+00
SCF Energy                                 R     -3.948738389032749E+02
CIS Energy                                 R     -3.946555952944165E+02
Total Energy                               R     -3.946555952944165E+02
Post-SCF wavefunction norm                 R      1.000000000000000E+00
RMS Force                                  R      2.598017161238791E-02
RMS Density                                R      7.440611729011457E-09
NImag                                      I                2
Job Status                                 I                1
Nuclear derivative order                   I                2
External E-field                           R   N=          35
  0.00000000E+00  0.00000000E+00  0.00000000E+00  0.00000000E+00  0.00000000E+00
  0.00000000E+00  0.00000000E+00  0.00000000E+00  0.00000000E+00  0.00000000E+00
  0.00000000E+00  0.00000000E+00  0.00000000E+00  0.00000000E+00  0.00000000E+00
  0.00000000E+00  0.00000000E+00  0.00000000E+00  0.00000000E+00  0.00000000E+00
  0.00000000E+00  0.00000000E+00  0.00000000E+00  0.00000000E+00  0.00000000E+00
  0.00000000E+00  0.00000000E+00  0.00000000E+00  0.00000000E+00  0.00000000E+00
  0.00000000E+00  0.00000000E+00  0.00000000E+00  0.00000000E+00  0.00000000E+00
IOpCl                                      I                0
IROHF                                      I                0
Alpha Orbital Energies                     R   N=         206
 -1.91476704E+01 -1.44457704E+01 -1.44209975E+01 -1.43682661E+01 -1.03685442E+01
 -1.03532603E+01 -1.03291861E+01 -1.02653141E+01 -1.13761775E+00 -1.06869565E+00
 -1.04118423E+00 -9.65678031E-01 -8.78443689E-01 -7.54779685E-01 -7.39834773E-01
 -6.51728205E-01 -6.50376423E-01 -6.10991426E-01 -5.78377772E-01 -5.39117364E-01
 -5.25625116E-01 -5.12514408E-01 -4.83422573E-01 -4.61448169E-01 -4.25246749E-01
 -3.43839968E-01 -3.27942143E-01 -3.24900457E-01 -2.99142320E-01 -4.71763749E-04
  1.10669299E-02  2.38316308E-02  4.27088890E-02  4.80927406E-02  6.76019780E-02
  7.05571450E-02  7.34661243E-02  9.23025848E-02  1.05013524E-01  1.09840734E-01
  1.15697444E-01  1.16460591E-01  1.44922205E-01  1.49874769E-01  1.52472587E-01
  1.56117433E-01  1.67852942E-01  1.75924068E-01  1.94788560E-01  1.98401769E-01
  2.09402007E-01  2.12209349E-01  2.17924384E-01  2.28465958E-01  2.32790239E-01
  2.41276145E-01  2.43583924E-01  2.71065881E-01  2.73299963E-01  2.86905570E-01
  2.90152752E-01  2.94491772E-01  3.07901635E-01  3.13847572E-01  3.39346775E-01
  3.49010087E-01  3.56855737E-01  3.59849894E-01  3.69061778E-01  3.78388655E-01
  4.06525919E-01  4.15502082E-01  4.25916105E-01  4.66597851E-01  5.01396013E-01
  5.13101768E-01  5.64023239E-01  5.80961508E-01  5.89907747E-01  6.06228231E-01
  6.07362749E-01  6.44625390E-01  6.44728974E-01  6.64238215E-01  6.65680595E-01
  7.17362555E-01  7.47666863E-01  7.59749972E-01  7.67201398E-01  7.81882094E-01
  8.13754728E-01  8.33988103E-01  8.53245219E-01  8.60375568E-01  8.66501285E-01
  8.74987692E-01  8.82472437E-01  8.94992621E-01  9.41222244E-01  9.58297885E-01
  9.72986354E-01  9.98088157E-01  1.02824548E+00  1.06200418E+00  1.06596252E+00
  1.09551953E+00  1.12326821E+00  1.14878245E+00  1.19528417E+00  1.20499274E+00
  1.22094353E+00  1.22419311E+00  1.25124537E+00  1.25965222E+00  1.29197342E+00
  1.33104005E+00  1.35477440E+00  1.39078100E+00  1.40416295E+00  1.52340461E+00
  1.55715530E+00  1.57572930E+00  1.62562630E+00  1.63696801E+00  1.64239712E+00
  1.70006471E+00  1.70419349E+00  1.73876550E+00  1.75664633E+00  1.77202371E+00
  1.78793962E+00  1.81918734E+00  1.83916742E+00  1.87474584E+00  1.91710354E+00
  1.92304151E+00  1.99642099E+00  2.00343945E+00  2.01571194E+00  2.04234977E+00
  2.09664198E+00  2.11616115E+00  2.20279124E+00  2.24022011E+00  2.27275931E+00
  2.27499401E+00  2.32934191E+00  2.46481460E+00  2.46755462E+00  2.49366089E+00
  2.50883939E+00  2.58193640E+00  2.59606043E+00  2.63279582E+00  2.69908192E+00
  2.70104255E+00  2.73367429E+00  2.78196725E+00  2.79728659E+00  2.81188524E+00
  2.82189014E+00  2.86649480E+00  2.87702495E+00  2.91021848E+00  2.91810551E+00
  2.93398460E+00  2.95486148E+00  3.00165215E+00  3.02173888E+00  3.04019874E+00
  3.09129727E+00  3.10793979E+00  3.18723343E+00  3.25249051E+00  3.42644521E+00
  3.46517149E+00  3.48272270E+00  3.54985059E+00  3.59590281E+00  3.65622664E+00
  3.67652523E+00  3.72092196E+00  3.80457660E+00  3.90952947E+00  3.91341604E+00
  4.01852031E+00  4.04890503E+00  4.06932728E+00  4.21055304E+00  4.49677301E+00
  4.80471533E+00  4.84772158E+00  4.93291849E+00  5.13324679E+00  5.15194485E+00
  5.27440071E+00  5.44496402E+00  5.88184027E+00  2.37951481E+01  2.39283006E+01
  2.39837792E+01  2.42398836E+01  3.56329331E+01  3.56826157E+01  3.57970343E+01
  5.01122034E+01
Alpha MO coefficients                      R   N=       42436
 -8.08913482E-06  3.99774774E-05 -9.99495530E-05  5.75462318E-05  0.00000000E+00
 -3.80298096E-04  6.13829705E-04 -2.80309176E-04  0.00000000E+00  2.21473510E-03
  9.65663119E-04  2.26673887E-03  0.00000000E+00 -2.93920951E-03 -9.87488712E-05
 -5.00267856E-05  0.00000000E+00 -5.56922984E-05  0.00000000E+00  0.00000000E+00
  7.26081618E-05  2.17985406E-04 -2.26359678E-05  7.19550402E-05 -4.23110280E-04
  2.12211315E-04  0.00000000E+00  5.78210732E-04  1.34012419E-03 -5.67070295E-04
  0.00000000E+00  6.41634242E-03 -9.69335550E-03  5.05454860E-03  0.00000000E+00
  1.48591189E-03  7.87680049E-04 -8.22840206E-04  0.00000000E+00  2.06990334E-04
  0.00000000E+00  0.00000000E+00 -5.71710271E-04  8.97008713E-04 -1.23018253E-05
  6.02957450E-05 -1.06849058E-04  3.70948889E-05  0.00000000E+00 -5.77853595E-04
  6.16858047E-04 -2.24909063E-04  0.00000000E+00  1.18428350E-04 -5.64061477E-03
 -4.24055038E-03  0.00000000E+00 -1.80699254E-03 -2.78804922E-03 -7.62834818E-05
  0.00000000E+00 -4.45873431E-05  0.00000000E+00  0.00000000E+00 -1.60064926E-04
  5.74323641E-05 -3.22994982E-06  1.34349095E-05 -6.24189832E-05  4.31469911E-05
  0.00000000E+00  1.52625347E-04  4.17286650E-04 -2.09289993E-04  0.00000000E+00
 -5.78962052E-03  3.48563680E-03 -1.66911575E-03  0.00000000E+00  1.25843193E-03
  4.77701517E-04 -6.23384305E-04  0.00000000E+00  8.86551727E-05  0.00000000E+00
  0.00000000E+00  4.70565228E-05 -9.69548821E-05 -3.66145287E-06  4.77987848E-05
 -3.34015465E-05  1.09000394E-04  0.00000000E+00 -3.03941192E-04  8.86797225E-05
 -4.90793599E-04  0.00000000E+00  1.12271232E-03  2.17752480E-03  4.93006430E-04
  0.00000000E+00  2.26129697E-04  1.07154055E-03 -1.11856816E-03  0.00000000E+00