 Entering Gaussian System, Link 0=/shared/gaussian/g16.b01/AVX2/g16/g16
 Initial command:
 /shared/gaussian/g16.b01/AVX2/g16/l1.exe "/scratch/marlene/SCRGAU.120036.Thymine6311-es3/Gau-39221.inp" -scrdir="/scratch/marlene/SCRGAU.120036.Thymine6311-es3/"
 Entering Link 1 = /shared/gaussian/g16.b01/AVX2/g16/l1.exe PID=     39222.
  
 Copyright (c) 1988-2017, Gaussian, Inc.  All Rights Reserved.
  
 This is part of the Gaussian(R) 16 program.  It is based on
 the Gaussian(R) 09 system (copyright 2009, Gaussian, Inc.),
 the Gaussian(R) 03 system (copyright 2003, Gaussian, Inc.),
 the Gaussian(R) 98 system (copyright 1998, Gaussian, Inc.),
 the Gaussian(R) 94 system (copyright 1995, Gaussian, Inc.),
 the Gaussian 92(TM) system (copyright 1992, Gaussian, Inc.),
 the Gaussian 90(TM) system (copyright 1990, Gaussian, Inc.),
 the Gaussian 88(TM) system (copyright 1988, Gaussian, Inc.),
 the Gaussian 86(TM) system (copyright 1986, Carnegie Mellon
 University), and the Gaussian 82(TM) system (copyright 1983,
 Carnegie Mellon University). Gaussian is a federally registered
 trademark of Gaussian, Inc.
  
 This software contains proprietary and confidential information,
 including trade secrets, belonging to Gaussian, Inc.
  
 This software is provided under written license and may be
 used, copied, transmitted, or stored only in accord with that
 written license.
  
 The following legend is applicable only to US Government
 contracts under FAR:
  
                    RESTRICTED RIGHTS LEGEND
  
 Use, reproduction and disclosure by the US Government is
 subject to restrictions as set forth in subparagraphs (a)
 and (c) of the Commercial Computer Software - Restricted
 Rights clause in FAR 52.227-19.
  
 Gaussian, Inc.
 340 Quinnipiac St., Bldg. 40, Wallingford CT 06492
  
  
 ---------------------------------------------------------------
 Warning -- This program may not be used in any manner that
 competes with the business of Gaussian, Inc. or will provide
 assistance to any competitor of Gaussian, Inc.  The licensee
 of this program is prohibited from giving any competitor of
 Gaussian, Inc. access to this program.  By using this program,
 the user acknowledges that Gaussian, Inc. is engaged in the
 business of creating and licensing software in the field of
 computational chemistry and represents and warrants to the
 licensee that it is not a competitor of Gaussian, Inc. and that
 it will not use this program in any manner prohibited above.
 ---------------------------------------------------------------
  

 Cite this work as:
 Gaussian 16, Revision B.01,
 M. J. Frisch, G. W. Trucks, H. B. Schlegel, G. E. Scuseria, 
 M. A. Robb, J. R. Cheeseman, G. Scalmani, V. Barone, 
 G. A. Petersson, H. Nakatsuji, X. Li, M. Caricato, A. V. Marenich, 
 J. Bloino, B. G. Janesko, R. Gomperts, B. Mennucci, H. P. Hratchian, 
 J. V. Ortiz, A. F. Izmaylov, J. L. Sonnenberg, D. Williams-Young, 
 F. Ding, F. Lipparini, F. Egidi, J. Goings, B. Peng, A. Petrone, 
 T. Henderson, D. Ranasinghe, V. G. Zakrzewski, J. Gao, N. Rega, 
 G. Zheng, W. Liang, M. Hada, M. Ehara, K. Toyota, R. Fukuda, 
 J. Hasegawa, M. Ishida, T. Nakajima, Y. Honda, O. Kitao, H. Nakai, 
 T. Vreven, K. Throssell, J. A. Montgomery, Jr., J. E. Peralta, 
 F. Ogliaro, M. J. Bearpark, J. J. Heyd, E. N. Brothers, K. N. Kudin, 
 V. N. Staroverov, T. A. Keith, R. Kobayashi, J. Normand, 
 K. Raghavachari, A. P. Rendell, J. C. Burant, S. S. Iyengar, 
 J. Tomasi, M. Cossi, J. M. Millam, M. Klene, C. Adamo, R. Cammi, 
 J. W. Ochterski, R. L. Martin, K. Morokuma, O. Farkas, 
 J. B. Foresman, and D. J. Fox, Gaussian, Inc., Wallingford CT, 2016.
 
 ******************************************
 Gaussian 16:  ES64L-G16RevB.01 20-Dec-2017
                25-Nov-2022 
 ******************************************
 %nprocshared=50
 Will use up to   50 processors via shared memory.
 %mem=10GB
 %chk=Thymine6311-es3.chk
 ----------------------------------------------------------------
 #p freq td=(nstates=10,root=3) cam-b3lyp/6-311+G(d,p) symm=loose
 ----------------------------------------------------------------
 1/10=4,30=1,38=1/1,3;
 2/12=2,17=4,18=3,40=1/2;
 3/5=4,6=6,7=111,11=9,25=1,30=1,71=2,74=-40,140=1/1,2,3,8;
 4//1;
 5/5=2,38=5,98=1/2;
 8/6=1,10=2,107=3,108=10/1;
 9/8=3,15=3,41=10,42=1,70=2/14;
 10/5=2004,20=4,28=3/2;
 11/6=1,8=1,12=-3,16=1,42=3/1,2,10;
 10/6=3,21=1,28=3/2,14;
 6/7=2,8=2,9=2,10=2/1;
 7/8=1,10=1,12=6,13=8,14=3,25=1,44=2/1,2,3,16;
 1/10=4,30=1/3;
 99//99;
 Leave Link    1 at Fri Nov 25 12:00:36 2022, MaxMem=  1342177280 cpu:               1.7 elap:               0.0
 (Enter /shared/gaussian/g16.b01/AVX2/g16/l101.exe)
 -----------------------------
 Thymine TDDFT excited state 3
 -----------------------------
 Symbolic Z-matrix:
 Charge =  0 Multiplicity = 1
 N                     0.15573  -1.65906   0. 
 C                     1.356    -0.97895   0. 
 N                     1.19595   0.39106   0. 
 C                     0.        1.11536   0. 
 C                    -1.21429   0.29588   0. 
 C                    -1.07363  -1.0373    0. 
 O                     2.43107  -1.53059   0. 
 O                     0.01764   2.32621   0. 
 H                     0.23027  -2.66418   0. 
 H                     2.04984   0.93388   0. 
 C                    -2.53345   1.00026   0. 
 H                    -1.92503  -1.70611   0. 
 H                    -3.35814   0.2865    0. 
 H                    -2.6281    1.64474   0.87613 
 H                    -2.6281    1.64474  -0.87613 
 
 ITRead=  0  0  0  0  0  0  0  0  0  0  0  0  0  0  0
 MicOpt= -1 -1 -1 -1 -1 -1 -1 -1 -1 -1 -1 -1 -1 -1 -1
 NAtoms=     15 NQM=       15 NQMF=       0 NMMI=      0 NMMIF=      0
                NMic=       0 NMicF=      0.
                    Isotopes and Nuclear Properties:
 (Nuclear quadrupole moments (NQMom) in fm**2, nuclear magnetic moments (NMagM)
  in nuclear magnetons)

  Atom         1           2           3           4           5           6           7           8           9          10
 IAtWgt=          14          12          14          12          12          12          16          16           1           1
 AtmWgt=  14.0030740  12.0000000  14.0030740  12.0000000  12.0000000  12.0000000  15.9949146  15.9949146   1.0078250   1.0078250
 NucSpn=           2           0           2           0           0           0           0           0           1           1
 AtZEff=  -0.0000000  -0.0000000  -0.0000000  -0.0000000  -0.0000000  -0.0000000  -0.0000000  -0.0000000  -0.0000000  -0.0000000
 NQMom=    2.0440000   0.0000000   2.0440000   0.0000000   0.0000000   0.0000000   0.0000000   0.0000000   0.0000000   0.0000000
 NMagM=    0.4037610   0.0000000   0.4037610   0.0000000   0.0000000   0.0000000   0.0000000   0.0000000   2.7928460   2.7928460
 AtZNuc=   7.0000000   6.0000000   7.0000000   6.0000000   6.0000000   6.0000000   8.0000000   8.0000000   1.0000000   1.0000000

  Atom        11          12          13          14          15
 IAtWgt=          12           1           1           1           1
 AtmWgt=  12.0000000   1.0078250   1.0078250   1.0078250   1.0078250
 NucSpn=           0           1           1           1           1
 AtZEff=  -0.0000000  -0.0000000  -0.0000000  -0.0000000  -0.0000000
 NQMom=    0.0000000   0.0000000   0.0000000   0.0000000   0.0000000
 NMagM=    0.0000000   2.7928460   2.7928460   2.7928460   2.7928460
 AtZNuc=   6.0000000   1.0000000   1.0000000   1.0000000   1.0000000
 Leave Link  101 at Fri Nov 25 12:00:36 2022, MaxMem=  1342177280 cpu:               6.2 elap:               0.2
 (Enter /shared/gaussian/g16.b01/AVX2/g16/l103.exe)

 GradGradGradGradGradGradGradGradGradGradGradGradGradGradGradGradGradGrad
 Berny optimization.
 Initialization pass.
 Trust Radius=3.00D-01 FncErr=1.00D-07 GrdErr=1.00D-07 EigMax=2.50D+02 EigMin=1.00D-04
 Number of steps in this run=      2 maximum allowed number of steps=      2.
 GradGradGradGradGradGradGradGradGradGradGradGradGradGradGradGradGradGrad

 Leave Link  103 at Fri Nov 25 12:00:36 2022, MaxMem=  1342177280 cpu:               1.2 elap:               0.0
 (Enter /shared/gaussian/g16.b01/AVX2/g16/l202.exe)
                          Input orientation:                          
 ---------------------------------------------------------------------
 Center     Atomic      Atomic             Coordinates (Angstroms)
 Number     Number       Type             X           Y           Z
 ---------------------------------------------------------------------
      1          7           0        0.155734   -1.659062    0.000000
      2          6           0        1.356002   -0.978945    0.000000
      3          7           0        1.195950    0.391060    0.000000
      4          6           0        0.000000    1.115359    0.000000
      5          6           0       -1.214288    0.295879    0.000000
      6          6           0       -1.073627   -1.037299    0.000000
      7          8           0        2.431070   -1.530594    0.000000
      8          8           0        0.017636    2.326209    0.000000
      9          1           0        0.230273   -2.664179    0.000000
     10          1           0        2.049840    0.933881    0.000000
     11          6           0       -2.533447    1.000264    0.000000
     12          1           0       -1.925029   -1.706110    0.000000
     13          1           0       -3.358140    0.286495    0.000000
     14          1           0       -2.628104    1.644735    0.876132
     15          1           0       -2.628104    1.644735   -0.876132
 ---------------------------------------------------------------------
                    Distance matrix (angstroms):
                    1          2          3          4          5
     1  N    0.000000
     2  C    1.379566   0.000000
     3  N    2.298924   1.379322   0.000000
     4  C    2.778788   2.494965   1.398179   0.000000
     5  C    2.387206   2.869071   2.412117   1.464938   0.000000
     6  C    1.377649   2.430330   2.681639   2.405538   1.340578
     7  O    2.278960   1.208341   2.284355   3.593211   4.077332
     8  O    3.987663   3.565847   2.265662   1.210978   2.374842
     9  H    1.007877   2.026642   3.204219   3.786546   3.293736
    10  H    3.211073   2.034776   1.011822   2.057858   3.325895
    11  C    3.782024   4.364067   3.778827   2.536060   1.495439
    12  H    2.081295   3.360645   3.760137   3.415615   2.124409
    13  H    4.016529   4.881032   4.555290   3.458919   2.143873
    14  H    4.408224   4.850196   4.118580   2.820421   2.141470
    15  H    4.408224   4.850196   4.118580   2.820421   2.141470
                    6          7          8          9         10
     6  C    0.000000
     7  O    3.539243   0.000000
     8  O    3.536105   4.549681   0.000000
     9  H    2.084921   2.475585   4.994916   0.000000
    10  H    3.693453   2.493787   2.463418   4.031980   0.000000
    11  C    2.506539   5.572403   2.875092   4.589803   4.583768
    12  H    1.082679   4.359634   4.475885   2.358649   4.771702
    13  H    2.640347   6.067682   3.944147   4.645771   5.446591
    14  H    3.221384   6.037016   2.869138   5.244489   4.812077
    15  H    3.221384   6.037016   2.869138   5.244489   4.812077
                   11         12         13         14         15
    11  C    0.000000
    12  H    2.773920   0.000000
    13  H    1.090681   2.454441   0.000000
    14  H    1.091746   3.534131   1.773521   0.000000
    15  H    1.091746   3.534131   1.773521   1.752264   0.000000
 Stoichiometry    C5H6N2O2
 Framework group  CS[SG(C5H4N2O2),X(H2)]
 Deg. of freedom    26
 Full point group                 CS      NOp   2
 Largest Abelian subgroup         CS      NOp   2
 Largest concise Abelian subgroup CS      NOp   2
                         Standard orientation:                         
 ---------------------------------------------------------------------
 Center     Atomic      Atomic             Coordinates (Angstroms)
 Number     Number       Type             X           Y           Z
 ---------------------------------------------------------------------
      1          7           0        0.155734   -1.659062    0.000000
      2          6           0        1.356002   -0.978945    0.000000
      3          7           0        1.195950    0.391060    0.000000
      4          6           0       -0.000000    1.115359    0.000000
      5          6           0       -1.214288    0.295879    0.000000
      6          6           0       -1.073627   -1.037299    0.000000
      7          8           0        2.431070   -1.530595    0.000000
      8          8           0        0.017636    2.326209    0.000000
      9          1           0        0.230272   -2.664179    0.000000
     10          1           0        2.049840    0.933880    0.000000
     11          6           0       -2.533447    1.000264    0.000000
     12          1           0       -1.925029   -1.706110    0.000000
     13          1           0       -3.358140    0.286495    0.000000
     14          1           0       -2.628104    1.644735    0.876132
     15          1           0       -2.628104    1.644735   -0.876132
 ---------------------------------------------------------------------
 Rotational constants (GHZ):           3.2246800           1.4105953           0.9872586
 Leave Link  202 at Fri Nov 25 12:00:36 2022, MaxMem=  1342177280 cpu:               0.4 elap:               0.0
 (Enter /shared/gaussian/g16.b01/AVX2/g16/l301.exe)
 Standard basis: 6-311+G(d,p) (5D, 7F)
 Ernie: Thresh=  0.10000D-02 Tol=  0.10000D-05 Strict=F.
 There are   179 symmetry adapted cartesian basis functions of A'  symmetry.
 There are    64 symmetry adapted cartesian basis functions of A"  symmetry.
 There are   170 symmetry adapted basis functions of A'  symmetry.
 There are    64 symmetry adapted basis functions of A"  symmetry.
   234 basis functions,   372 primitive gaussians,   243 cartesian basis functions
    33 alpha electrons       33 beta electrons
       nuclear repulsion energy       440.6332842825 Hartrees.
 IExCor=20419 DFT=T Ex+Corr=CAM-B3LYP ExCW=0 ScaHFX=  1.000000
 ScaDFX=  1.000000  1.000000  1.000000  0.810000 ScalE2=  1.000000  1.000000
 IRadAn=      5 IRanWt=     -1 IRanGd=            0 ICorTp=0 IEmpDi=  4
 HFx  wShort=  0.000000 wLong=  0.330000 cFull=  0.190000 cShort=  0.000000 cLong=  0.460000
 DFx  wShort=  0.000000 wLong=  0.330000 cFull=  0.190000 cShort=  0.000000 cLong=  0.460000
 NAtoms=   15 NActive=   15 NUniq=   14 SFac= 1.15D+00 NAtFMM=   60 NAOKFM=F Big=F
 Integral buffers will be    131072 words long.
 Raffenetti 1 integral format.
 Two-electron integral symmetry is turned on.
 Leave Link  301 at Fri Nov 25 12:00:36 2022, MaxMem=  1342177280 cpu:               2.5 elap:               0.1
 (Enter /shared/gaussian/g16.b01/AVX2/g16/l302.exe)
 NPDir=0 NMtPBC=     1 NCelOv=     1 NCel=       1 NClECP=     1 NCelD=      1
         NCelK=      1 NCelE2=     1 NClLst=     1 CellRange=     0.0.
 One-electron integrals computed using PRISM.
 One-electron integral symmetry used in STVInt
 NBasis=   234 RedAO= T EigKep=  8.80D-06  NBF=   170    64
 NBsUse=   234 1.00D-06 EigRej= -1.00D+00 NBFU=   170    64
 Precomputing XC quadrature grid using
 IXCGrd= 4 IRadAn=           5 IRanWt=          -1 IRanGd=           0 AccXCQ= 0.00D+00.
 Generated NRdTot=       0 NPtTot=           0 NUsed=           0 NTot=          32
 NSgBfM=   243   243   243   243   243 MxSgAt=    15 MxSgA2=    15.
 Leave Link  302 at Fri Nov 25 12:00:36 2022, MaxMem=  1342177280 cpu:              11.4 elap:               0.3
 (Enter /shared/gaussian/g16.b01/AVX2/g16/l303.exe)
 DipDrv:  MaxL=1.
 Leave Link  303 at Fri Nov 25 12:00:36 2022, MaxMem=  1342177280 cpu:               1.8 elap:               0.1
 (Enter /shared/gaussian/g16.b01/AVX2/g16/l308.exe)
 Leave Link  308 at Fri Nov 25 12:00:36 2022, MaxMem=  1342177280 cpu:               1.9 elap:               0.1
 (Enter /shared/gaussian/g16.b01/AVX2/g16/l401.exe)
 ExpMin= 4.38D-02 ExpMax= 8.59D+03 ExpMxC= 1.30D+03 IAcc=3 IRadAn=         5 AccDes= 0.00D+00
 Harris functional with IExCor=20419 and IRadAn=       5 diagonalized for initial guess.
 HarFok:  IExCor=20419 AccDes= 0.00D+00 IRadAn=         5 IDoV= 1 UseB2=F ITyADJ=14
 ICtDFT=  3500011 ScaDFX=  1.000000  1.000000  1.000000  1.000000
 FoFCou: FMM=F IPFlag=           0 FMFlag=      100000 FMFlg1=           0
         NFxFlg=           0 DoJE=T BraDBF=F KetDBF=T FulRan=T
         wScrn=  0.000000 ICntrl=       500 IOpCl=  0 I1Cent=   200000004 NGrid=           0
         NMat0=    1 NMatS0=      1 NMatT0=    0 NMatD0=    1 NMtDS0=    0 NMtDT0=    0
 Petite list used in FoFCou.
 Harris En= -437.692961591682    
 JPrj=0 DoOrth=F DoCkMO=F.
 Initial guess orbital symmetries:
       Occupied  (A') (A') (A') (A') (A') (A') (A') (A') (A') (A')
                 (A') (A') (A') (A') (A') (A') (A') (A') (A') (A')
                 (A") (A') (A') (A') (A") (A') (A') (A") (A") (A')
                 (A") (A') (A")
       Virtual   (A') (A") (A') (A') (A") (A') (A') (A') (A") (A")
                 (A') (A") (A') (A') (A") (A') (A') (A') (A") (A")
                 (A') (A') (A") (A') (A') (A') (A') (A") (A') (A')
                 (A") (A') (A') (A") (A') (A') (A') (A') (A') (A')
                 (A") (A') (A') (A') (A') (A') (A') (A') (A') (A')
                 (A") (A') (A') (A') (A') (A') (A') (A") (A") (A')
                 (A") (A') (A") (A') (A") (A') (A') (A') (A') (A')
                 (A') (A') (A') (A') (A") (A') (A') (A") (A') (A')
                 (A") (A') (A') (A") (A') (A") (A') (A") (A') (A")
                 (A') (A') (A') (A') (A') (A") (A") (A") (A') (A")
                 (A') (A') (A") (A') (A') (A") (A') (A') (A") (A')
                 (A') (A") (A") (A') (A') (A') (A") (A') (A') (A')
                 (A') (A') (A") (A') (A") (A') (A') (A') (A') (A')
                 (A') (A") (A") (A') (A") (A') (A") (A') (A") (A')
                 (A") (A') (A") (A') (A') (A') (A') (A") (A') (A")
                 (A') (A") (A") (A') (A') (A') (A") (A') (A') (A")
                 (A') (A') (A') (A') (A") (A") (A') (A') (A') (A')
                 (A') (A') (A') (A') (A") (A') (A") (A") (A') (A')
                 (A') (A') (A') (A') (A') (A") (A") (A') (A') (A')
                 (A') (A') (A') (A') (A') (A') (A') (A') (A') (A')
                 (A')
 The electronic state of the initial guess is 1-A'.
 Leave Link  401 at Fri Nov 25 12:00:37 2022, MaxMem=  1342177280 cpu:              16.2 elap:               0.4
 (Enter /shared/gaussian/g16.b01/AVX2/g16/l502.exe)
 Integral symmetry usage will be decided dynamically.
 Closed shell SCF:
 Using DIIS extrapolation, IDIIS=  1040.
 NGot=  1342177280 LenX=  1342044072 LenY=  1341984582
 Requested convergence on RMS density matrix=1.00D-08 within 128 cycles.
 Requested convergence on MAX density matrix=1.00D-06.
 Requested convergence on             energy=1.00D-06.
 No special actions if energy rises.
 Fock matrices will be formed incrementally for  20 cycles.

 Cycle   1  Pass 1  IDiag  1:
 FoFJK:  IHMeth= 1 ICntrl=       0 DoSepK=T KAlg= 0 I1Cent=           0 FoldK=F
 IRaf=         1 NMat=       1 IRICut=       1 DoRegI=T DoRafI=F ISym2E= 1 IDoP0=0 IntGTp=1.
 FoFCou: FMM=F IPFlag=           0 FMFlag=      100000 FMFlg1=           0
         NFxFlg=           0 DoJE=T BraDBF=F KetDBF=F FulRan=T
         wScrn=  0.000000 ICntrl=       500 IOpCl=  0 I1Cent=           0 NGrid=           0
         NMat0=    1 NMatS0=      1 NMatT0=    0 NMatD0=    1 NMtDS0=    0 NMtDT0=    0
 Petite list used in FoFCou.
 E= -453.932422397199    
 DIIS: error= 5.55D-02 at cycle   1 NSaved=   1.
 NSaved= 1 IEnMin= 1 EnMin= -453.932422397199     IErMin= 1 ErrMin= 5.55D-02
 ErrMax= 5.55D-02  0.00D+00 EMaxC= 1.00D-01 BMatC= 7.60D-01 BMatP= 7.60D-01
 IDIUse=3 WtCom= 4.45D-01 WtEn= 5.55D-01
 Coeff-Com:  0.100D+01
 Coeff-En:   0.100D+01
 Coeff:      0.100D+01
 Gap=     0.306 Goal=   None    Shift=    0.000
 GapD=    0.306 DampG=1.000 DampE=0.500 DampFc=0.5000 IDamp=-1.
 Damping current iteration by 5.00D-01
 RMSDP=9.25D-03 MaxDP=7.00D-01              OVMax= 1.53D-01

 Cycle   2  Pass 1  IDiag  1:
 RMSU=  4.58D-03    CP:  9.71D-01
 E= -453.996382252572     Delta-E=       -0.063959855372 Rises=F Damp=T
 DIIS: error= 2.61D-02 at cycle   2 NSaved=   2.
 NSaved= 2 IEnMin= 2 EnMin= -453.996382252572     IErMin= 2 ErrMin= 2.61D-02
 ErrMax= 2.61D-02  0.00D+00 EMaxC= 1.00D-01 BMatC= 1.58D-01 BMatP= 7.60D-01
 IDIUse=3 WtCom= 7.39D-01 WtEn= 2.61D-01
 Coeff-Com: -0.524D+00 0.152D+01
 Coeff-En:   0.000D+00 0.100D+01
 Coeff:     -0.387D+00 0.139D+01
 Gap=     0.322 Goal=   None    Shift=    0.000
 RMSDP=4.26D-03 MaxDP=4.13D-01 DE=-6.40D-02 OVMax= 1.43D-01

 Cycle   3  Pass 1  IDiag  1:
 RMSU=  3.23D-03    CP:  8.43D-01  1.04D+00
 E= -454.015240377957     Delta-E=       -0.018858125385 Rises=F Damp=F
 DIIS: error= 2.23D-02 at cycle   3 NSaved=   3.
 NSaved= 3 IEnMin= 3 EnMin= -454.015240377957     IErMin= 3 ErrMin= 2.23D-02
 ErrMax= 2.23D-02  0.00D+00 EMaxC= 1.00D-01 BMatC= 7.67D-02 BMatP= 1.58D-01
 IDIUse=3 WtCom= 7.77D-01 WtEn= 2.23D-01
 Coeff-Com: -0.373D+00 0.839D+00 0.533D+00
 Coeff-En:   0.000D+00 0.325D+00 0.675D+00
 Coeff:     -0.290D+00 0.725D+00 0.565D+00
 Gap=     0.304 Goal=   None    Shift=    0.000
 RMSDP=3.63D-03 MaxDP=3.95D-01 DE=-1.89D-02 OVMax= 8.17D-02

 Cycle   4  Pass 1  IDiag  1:
 RMSU=  1.04D-03    CP:  9.15D-01  1.64D+00  5.42D-01
 E= -454.068339614069     Delta-E=       -0.053099236112 Rises=F Damp=F
 DIIS: error= 7.78D-03 at cycle   4 NSaved=   4.
 NSaved= 4 IEnMin= 4 EnMin= -454.068339614069     IErMin= 4 ErrMin= 7.78D-03
 ErrMax= 7.78D-03  0.00D+00 EMaxC= 1.00D-01 BMatC= 9.17D-03 BMatP= 7.67D-02
 IDIUse=3 WtCom= 9.22D-01 WtEn= 7.78D-02
 Coeff-Com: -0.151D+00 0.326D+00 0.339D+00 0.486D+00
 Coeff-En:   0.000D+00 0.000D+00 0.626D-01 0.937D+00
 Coeff:     -0.139D+00 0.300D+00 0.317D+00 0.521D+00
 Gap=     0.302 Goal=   None    Shift=    0.000
 RMSDP=1.41D-03 MaxDP=1.44D-01 DE=-5.31D-02 OVMax= 2.00D-02

 Cycle   5  Pass 1  IDiag  1:
 RMSU=  3.27D-04    CP:  8.77D-01  1.49D+00  7.37D-01  4.78D-01
 E= -454.074478059639     Delta-E=       -0.006138445570 Rises=F Damp=F
 DIIS: error= 1.40D-03 at cycle   5 NSaved=   5.
 NSaved= 5 IEnMin= 5 EnMin= -454.074478059639     IErMin= 5 ErrMin= 1.40D-03
 ErrMax= 1.40D-03  0.00D+00 EMaxC= 1.00D-01 BMatC= 2.86D-04 BMatP= 9.17D-03
 IDIUse=3 WtCom= 9.86D-01 WtEn= 1.40D-02
 Coeff-Com: -0.350D-01 0.746D-01 0.952D-01 0.244D+00 0.621D+00
 Coeff-En:   0.000D+00 0.000D+00 0.000D+00 0.000D+00 0.100D+01
 Coeff:     -0.345D-01 0.735D-01 0.939D-01 0.241D+00 0.626D+00
 Gap=     0.302 Goal=   None    Shift=    0.000
 RMSDP=2.22D-04 MaxDP=2.30D-02 DE=-6.14D-03 OVMax= 4.74D-03

 Cycle   6  Pass 1  IDiag  1:
 RMSU=  6.78D-05    CP:  8.80D-01  1.52D+00  7.34D-01  5.97D-01  9.21D-01
 E= -454.074686121932     Delta-E=       -0.000208062293 Rises=F Damp=F
 DIIS: error= 3.97D-04 at cycle   6 NSaved=   6.
 NSaved= 6 IEnMin= 6 EnMin= -454.074686121932     IErMin= 6 ErrMin= 3.97D-04
 ErrMax= 3.97D-04  0.00D+00 EMaxC= 1.00D-01 BMatC= 2.06D-05 BMatP= 2.86D-04
 IDIUse=3 WtCom= 9.96D-01 WtEn= 3.97D-03
 Coeff-Com:  0.129D-01-0.283D-01-0.198D-01 0.193D-01 0.302D+00 0.714D+00
 Coeff-En:   0.000D+00 0.000D+00 0.000D+00 0.000D+00 0.000D+00 0.100D+01
 Coeff:      0.129D-01-0.282D-01-0.198D-01 0.193D-01 0.301D+00 0.715D+00
 Gap=     0.302 Goal=   None    Shift=    0.000
 RMSDP=7.61D-05 MaxDP=6.58D-03 DE=-2.08D-04 OVMax= 2.75D-03

 Cycle   7  Pass 1  IDiag  1:
 RMSU=  2.98D-05    CP:  8.78D-01  1.52D+00  7.45D-01  6.08D-01  1.04D+00
                    CP:  9.69D-01
 E= -454.074708365386     Delta-E=       -0.000022243454 Rises=F Damp=F
 DIIS: error= 1.39D-04 at cycle   7 NSaved=   7.
 NSaved= 7 IEnMin= 7 EnMin= -454.074708365386     IErMin= 7 ErrMin= 1.39D-04
 ErrMax= 1.39D-04  0.00D+00 EMaxC= 1.00D-01 BMatC= 2.50D-06 BMatP= 2.06D-05
 IDIUse=3 WtCom= 9.99D-01 WtEn= 1.39D-03
 Coeff-Com:  0.804D-02-0.173D-01-0.154D-01-0.177D-01 0.637D-01 0.300D+00
 Coeff-Com:  0.679D+00
 Coeff-En:   0.000D+00 0.000D+00 0.000D+00 0.000D+00 0.000D+00 0.000D+00
 Coeff-En:   0.100D+01
 Coeff:      0.802D-02-0.173D-01-0.154D-01-0.177D-01 0.637D-01 0.300D+00
 Coeff:      0.679D+00
 Gap=     0.302 Goal=   None    Shift=    0.000
 RMSDP=2.44D-05 MaxDP=1.86D-03 DE=-2.22D-05 OVMax= 6.51D-04

 Cycle   8  Pass 1  IDiag  1:
 RMSU=  1.03D-05    CP:  8.77D-01  1.52D+00  7.49D-01  6.03D-01  1.07D+00
                    CP:  1.01D+00  8.49D-01
 E= -454.074711013684     Delta-E=       -0.000002648299 Rises=F Damp=F
 DIIS: error= 3.82D-05 at cycle   8 NSaved=   8.
 NSaved= 8 IEnMin= 8 EnMin= -454.074711013684     IErMin= 8 ErrMin= 3.82D-05
 ErrMax= 3.82D-05  0.00D+00 EMaxC= 1.00D-01 BMatC= 4.11D-07 BMatP= 2.50D-06
 IDIUse=1 WtCom= 1.00D+00 WtEn= 0.00D+00
 Coeff-Com:  0.177D-02-0.374D-02-0.421D-02-0.147D-01-0.244D-01 0.214D-01
 Coeff-Com:  0.296D+00 0.727D+00
 Coeff:      0.177D-02-0.374D-02-0.421D-02-0.147D-01-0.244D-01 0.214D-01
 Coeff:      0.296D+00 0.727D+00
 Gap=     0.302 Goal=   None    Shift=    0.000
 RMSDP=1.46D-05 MaxDP=1.27D-03 DE=-2.65D-06 OVMax= 3.18D-04

 Cycle   9  Pass 1  IDiag  1:
 RMSU=  5.36D-06    CP:  8.77D-01  1.52D+00  7.51D-01  6.01D-01  1.09D+00
                    CP:  1.03D+00  9.84D-01  1.06D+00
 E= -454.074711477052     Delta-E=       -0.000000463368 Rises=F Damp=F
 DIIS: error= 2.18D-05 at cycle   9 NSaved=   9.
 NSaved= 9 IEnMin= 9 EnMin= -454.074711477052     IErMin= 9 ErrMin= 2.18D-05
 ErrMax= 2.18D-05  0.00D+00 EMaxC= 1.00D-01 BMatC= 4.71D-08 BMatP= 4.11D-07
 IDIUse=1 WtCom= 1.00D+00 WtEn= 0.00D+00
 Coeff-Com: -0.570D-03 0.124D-02 0.878D-03-0.331D-02-0.187D-01-0.334D-01
 Coeff-Com:  0.151D-01 0.296D+00 0.743D+00
 Coeff:     -0.570D-03 0.124D-02 0.878D-03-0.331D-02-0.187D-01-0.334D-01
 Coeff:      0.151D-01 0.296D+00 0.743D+00
 Gap=     0.302 Goal=   None    Shift=    0.000
 RMSDP=5.02D-06 MaxDP=5.22D-04 DE=-4.63D-07 OVMax= 1.94D-04

 Cycle  10  Pass 1  IDiag  1:
 RMSU=  1.84D-06    CP:  8.77D-01  1.52D+00  7.51D-01  5.99D-01  1.09D+00
                    CP:  1.04D+00  9.77D-01  1.15D+00  1.02D+00
 E= -454.074711532451     Delta-E=       -0.000000055399 Rises=F Damp=F
 DIIS: error= 6.47D-06 at cycle  10 NSaved=  10.
 NSaved=10 IEnMin=10 EnMin= -454.074711532451     IErMin=10 ErrMin= 6.47D-06
 ErrMax= 6.47D-06  0.00D+00 EMaxC= 1.00D-01 BMatC= 9.50D-09 BMatP= 4.71D-08
 IDIUse=1 WtCom= 1.00D+00 WtEn= 0.00D+00
 Coeff-Com: -0.481D-03 0.104D-02 0.960D-03 0.331D-03-0.550D-02-0.179D-01
 Coeff-Com: -0.350D-01 0.368D-01 0.379D+00 0.641D+00
 Coeff:     -0.481D-03 0.104D-02 0.960D-03 0.331D-03-0.550D-02-0.179D-01
 Coeff:     -0.350D-01 0.368D-01 0.379D+00 0.641D+00
 Gap=     0.302 Goal=   None    Shift=    0.000
 RMSDP=1.24D-06 MaxDP=8.04D-05 DE=-5.54D-08 OVMax= 3.26D-05

 Cycle  11  Pass 1  IDiag  1:
 RMSU=  5.16D-07    CP:  8.77D-01  1.52D+00  7.51D-01  5.99D-01  1.09D+00
                    CP:  1.03D+00  9.91D-01  1.17D+00  1.15D+00  9.33D-01
 E= -454.074711542013     Delta-E=       -0.000000009562 Rises=F Damp=F
 DIIS: error= 1.92D-06 at cycle  11 NSaved=  11.
 NSaved=11 IEnMin=11 EnMin= -454.074711542013     IErMin=11 ErrMin= 1.92D-06
 ErrMax= 1.92D-06  0.00D+00 EMaxC= 1.00D-01 BMatC= 4.24D-10 BMatP= 9.50D-09
 IDIUse=1 WtCom= 1.00D+00 WtEn= 0.00D+00
 Coeff-Com: -0.748D-04 0.160D-03 0.191D-03 0.402D-03 0.103D-03-0.209D-02
 Coeff-Com: -0.153D-01-0.182D-01 0.700D-01 0.186D+00 0.779D+00
 Coeff:     -0.748D-04 0.160D-03 0.191D-03 0.402D-03 0.103D-03-0.209D-02
 Coeff:     -0.153D-01-0.182D-01 0.700D-01 0.186D+00 0.779D+00
 Gap=     0.302 Goal=   None    Shift=    0.000
 RMSDP=4.14D-07 MaxDP=3.51D-05 DE=-9.56D-09 OVMax= 1.94D-05

 Cycle  12  Pass 1  IDiag  1:
 RMSU=  1.22D-07    CP:  8.77D-01  1.52D+00  7.51D-01  5.98D-01  1.09D+00
                    CP:  1.03D+00  9.91D-01  1.17D+00  1.17D+00  9.86D-01
                    CP:  1.07D+00
 E= -454.074711542597     Delta-E=       -0.000000000584 Rises=F Damp=F
 DIIS: error= 6.98D-07 at cycle  12 NSaved=  12.
 NSaved=12 IEnMin=12 EnMin= -454.074711542597     IErMin=12 ErrMin= 6.98D-07
 ErrMax= 6.98D-07  0.00D+00 EMaxC= 1.00D-01 BMatC= 1.04D-10 BMatP= 4.24D-10
 IDIUse=1 WtCom= 1.00D+00 WtEn= 0.00D+00
 Coeff-Com:  0.138D-04-0.308D-04-0.393D-05 0.166D-03 0.692D-03 0.123D-02
 Coeff-Com: -0.319D-02-0.115D-01-0.134D-01-0.189D-01 0.328D+00 0.717D+00
 Coeff:      0.138D-04-0.308D-04-0.393D-05 0.166D-03 0.692D-03 0.123D-02
 Coeff:     -0.319D-02-0.115D-01-0.134D-01-0.189D-01 0.328D+00 0.717D+00
 Gap=     0.302 Goal=   None    Shift=    0.000
 RMSDP=1.63D-07 MaxDP=1.19D-05 DE=-5.84D-10 OVMax= 4.34D-06

 Cycle  13  Pass 1  IDiag  1:
 RMSU=  5.76D-08    CP:  8.77D-01  1.52D+00  7.51D-01  5.98D-01  1.09D+00
                    CP:  1.03D+00  9.91D-01  1.18D+00  1.19D+00  9.94D-01
                    CP:  1.14D+00  1.08D+00
 E= -454.074711542719     Delta-E=       -0.000000000122 Rises=F Damp=F
 DIIS: error= 1.88D-07 at cycle  13 NSaved=  13.
 NSaved=13 IEnMin=13 EnMin= -454.074711542719     IErMin=13 ErrMin= 1.88D-07
 ErrMax= 1.88D-07  0.00D+00 EMaxC= 1.00D-01 BMatC= 6.22D-12 BMatP= 1.04D-10
 IDIUse=1 WtCom= 1.00D+00 WtEn= 0.00D+00
 Coeff-Com:  0.939D-05-0.202D-04-0.165D-04-0.786D-05 0.132D-03 0.493D-03
 Coeff-Com:  0.525D-03-0.161D-03-0.857D-02-0.272D-01-0.133D-03 0.129D+00
 Coeff-Com:  0.906D+00
 Coeff:      0.939D-05-0.202D-04-0.165D-04-0.786D-05 0.132D-03 0.493D-03
 Coeff:      0.525D-03-0.161D-03-0.857D-02-0.272D-01-0.133D-03 0.129D+00
 Coeff:      0.906D+00
 Gap=     0.302 Goal=   None    Shift=    0.000
 RMSDP=3.27D-08 MaxDP=1.70D-06 DE=-1.22D-10 OVMax= 2.11D-06

 Cycle  14  Pass 1  IDiag  1:
 RMSU=  1.90D-08    CP:  8.77D-01  1.52D+00  7.51D-01  5.98D-01  1.09D+00
                    CP:  1.03D+00  9.91D-01  1.18D+00  1.19D+00  9.95D-01
                    CP:  1.17D+00  1.16D+00  1.21D+00
 E= -454.074711542730     Delta-E=       -0.000000000012 Rises=F Damp=F
 DIIS: error= 8.81D-08 at cycle  14 NSaved=  14.
 NSaved=14 IEnMin=14 EnMin= -454.074711542730     IErMin=14 ErrMin= 8.81D-08
 ErrMax= 8.81D-08  0.00D+00 EMaxC= 1.00D-01 BMatC= 1.31D-12 BMatP= 6.22D-12
 IDIUse=1 WtCom= 1.00D+00 WtEn= 0.00D+00
 Coeff-Com:  0.324D-05-0.680D-05-0.848D-05-0.271D-04-0.334D-04 0.817D-04
 Coeff-Com:  0.603D-03 0.147D-02-0.182D-02-0.101D-01-0.390D-01-0.424D-01
 Coeff-Com:  0.390D+00 0.701D+00
 Coeff:      0.324D-05-0.680D-05-0.848D-05-0.271D-04-0.334D-04 0.817D-04
 Coeff:      0.603D-03 0.147D-02-0.182D-02-0.101D-01-0.390D-01-0.424D-01
 Coeff:      0.390D+00 0.701D+00
 Gap=     0.302 Goal=   None    Shift=    0.000
 RMSDP=1.16D-08 MaxDP=6.17D-07 DE=-1.16D-11 OVMax= 8.18D-07

 Cycle  15  Pass 1  IDiag  1:
 RMSU=  6.09D-09    CP:  8.77D-01  1.52D+00  7.51D-01  5.98D-01  1.09D+00
                    CP:  1.03D+00  9.91D-01  1.18D+00  1.19D+00  9.95D-01
                    CP:  1.18D+00  1.18D+00  1.28D+00  1.07D+00
 E= -454.074711542730     Delta-E=        0.000000000000 Rises=F Damp=F
 DIIS: error= 2.07D-08 at cycle  15 NSaved=  15.
 NSaved=15 IEnMin=14 EnMin= -454.074711542730     IErMin=15 ErrMin= 2.07D-08
 ErrMax= 2.07D-08  0.00D+00 EMaxC= 1.00D-01 BMatC= 1.00D-13 BMatP= 1.31D-12
 IDIUse=1 WtCom= 1.00D+00 WtEn= 0.00D+00
 Coeff-Com: -0.785D-06 0.172D-05 0.915D-06-0.404D-05-0.308D-04-0.411D-04
 Coeff-Com:  0.688D-04 0.413D-03 0.705D-03 0.355D-03-0.914D-02-0.280D-01
 Coeff-Com: -0.247D-01 0.150D+00 0.910D+00
 Coeff:     -0.785D-06 0.172D-05 0.915D-06-0.404D-05-0.308D-04-0.411D-04
 Coeff:      0.688D-04 0.413D-03 0.705D-03 0.355D-03-0.914D-02-0.280D-01
 Coeff:     -0.247D-01 0.150D+00 0.910D+00
 Gap=     0.302 Goal=   None    Shift=    0.000
 RMSDP=7.71D-09 MaxDP=7.43D-07 DE= 2.27D-13 OVMax= 2.50D-07

 SCF Done:  E(RCAM-B3LYP) =  -454.074711543     A.U. after   15 cycles
            NFock= 15  Conv=0.77D-08     -V/T= 2.0031
 KE= 4.526887911143D+02 PE=-1.943026080453D+03 EE= 5.956292935130D+02
 Leave Link  502 at Fri Nov 25 12:00:45 2022, MaxMem=  1342177280 cpu:             408.9 elap:               8.3
 (Enter /shared/gaussian/g16.b01/AVX2/g16/l801.exe)
 DoSCS=F DFT=T ScalE2(SS,OS)=  1.000000  1.000000
 ExpMin= 4.38D-02 ExpMax= 8.59D+03 ExpMxC= 1.30D+03 IAcc=3 IRadAn=         5 AccDes= 0.00D+00
 HarFok:  IExCor=  205 AccDes= 0.00D+00 IRadAn=         5 IDoV=-2 UseB2=F ITyADJ=14
 ICtDFT= 12500011 ScaDFX=  1.000000  1.000000  1.000000  1.000000
 Largest valence mixing into a core orbital is  4.79D-05
 Largest core mixing into a valence orbital is  1.03D-05
 Range of M.O.s used for correlation:    10   234
 NBasis=   234 NAE=    33 NBE=    33 NFC=     9 NFV=     0
 NROrb=    225 NOA=    24 NOB=    24 NVA=   201 NVB=   201

 **** Warning!!: The largest alpha MO coefficient is  0.86869813D+02

 Leave Link  801 at Fri Nov 25 12:00:45 2022, MaxMem=  1342177280 cpu:               2.3 elap:               0.1
 (Enter /shared/gaussian/g16.b01/AVX2/g16/l914.exe)
 RHF ground state
 Keep R1, R2, and R3 ints in memory in symmetry-blocked form, NReq=1295426664.
 FoFCou: FMM=F IPFlag=           0 FMFlag=           0 FMFlg1=           0
         NFxFlg=           0 DoJE=F BraDBF=F KetDBF=F FulRan=T
         wScrn=  0.000000 ICntrl=       600 IOpCl=  0 I1Cent=           0 NGrid=           0
         NMat0=    1 NMatS0=  27495 NMatT0=    0 NMatD0=    1 NMtDS0=    0 NMtDT0=    0
 Petite list used in FoFCou.
 MDV=  1342177280 DFT=T DoStab=F Mixed=T DoRPA=T DoScal=F NonHer=T
 Making orbital integer symmetry assigments:
 Orbital symmetries:
       Occupied  (A') (A') (A') (A') (A') (A') (A') (A') (A') (A')
                 (A') (A') (A') (A') (A') (A') (A') (A') (A') (A')
                 (A") (A') (A') (A') (A") (A') (A") (A') (A") (A')
                 (A") (A') (A")
       Virtual   (A") (A') (A') (A') (A") (A") (A') (A') (A') (A")
                 (A") (A') (A') (A') (A") (A') (A') (A') (A") (A")
                 (A') (A") (A') (A') (A') (A') (A') (A') (A") (A')
                 (A") (A') (A') (A') (A') (A") (A') (A') (A') (A')
                 (A') (A') (A") (A') (A') (A') (A') (A') (A') (A')
                 (A") (A') (A') (A') (A') (A') (A') (A") (A') (A")
                 (A") (A') (A") (A') (A") (A') (A') (A') (A') (A')
                 (A') (A') (A') (A") (A') (A') (A") (A') (A') (A')
                 (A') (A") (A') (A') (A") (A') (A") (A") (A') (A")
                 (A') (A") (A') (A') (A') (A") (A') (A") (A') (A')
                 (A") (A') (A") (A') (A') (A') (A") (A") (A') (A')
                 (A") (A') (A") (A') (A') (A') (A') (A") (A') (A')
                 (A') (A') (A") (A') (A") (A') (A') (A') (A') (A')
                 (A") (A') (A") (A") (A') (A') (A") (A') (A") (A')
                 (A") (A') (A") (A') (A') (A') (A') (A') (A") (A")
                 (A") (A') (A') (A") (A') (A') (A') (A") (A') (A')
                 (A") (A') (A') (A') (A") (A") (A') (A') (A') (A')
                 (A') (A') (A') (A') (A") (A") (A') (A") (A') (A')
                 (A') (A') (A') (A') (A') (A") (A") (A') (A') (A')
                 (A') (A') (A') (A') (A') (A') (A') (A') (A') (A')
                 (A')
    40 initial guesses have been made.
 Convergence on wavefunction:    0.000001000000000
 Davidson Disk Diagonalization:  ConvIn= 1.00D-06 SkipCon=T Conv= 1.00D-06.
 Max sub-space:  2000 roots to seek:    40 dimension of matrix:         9648
 Iteration     1 Dimension    40 NMult     0 NNew     40
 CISAX will form    40 AO SS matrices at one time.
 NMat=    40 NSing=    40 JSym2X=-1.
 New state      1 was old state      3
 New state      2 was old state      1
 New state      3 was old state      2
 New state      4 was old state     18
 New state      6 was old state      4
 New state      7 was old state      6
 New state      8 was old state     10
 New state      9 was old state      7
 New state     10 was old state      9
 Excitation Energies [eV] at current iteration:
 Root      1 :     5.383593692967183
 Root      2 :     6.052138032208834
 Root      3 :     6.086520537578630
 Root      4 :     6.764708988618866
 Root      5 :     6.912271366841647
 Root      6 :     7.056171273039950
 Root      7 :     7.140185002709660
 Root      8 :     7.288069458978951
 Root      9 :     7.424790181919088
 Root     10 :     7.479108308371037
 Root     11 :     7.668718245765926
 Root     12 :     7.758084970704728
 Root     13 :     7.768774005421996
 Root     14 :     7.885474302012029
 Root     15 :     7.901813377314980
 Root     16 :     8.103505023841738
 Root     17 :     8.123531665198939
 Root     18 :     8.298623637061633
 Root     19 :     8.388081460165880
 Root     20 :     8.426538366908932
 Root     21 :     8.513648695238563
 Root     22 :     8.660751431841749
 Root     23 :     8.707305116787746
 Root     24 :     8.737476208539915
 Root     25 :     8.814670611333590
 Root     26 :     8.916606107139707
 Root     27 :     9.004359130967840
 Root     28 :     9.125569078638634
 Root     29 :     9.202939459425073
 Root     30 :     9.247751122815298
 Root     31 :     9.251387011666319
 Root     32 :     9.313658572142836
 Root     33 :     9.378729499215956
 Root     34 :     9.384105665670536
 Root     35 :     9.413171882898814
 Root     36 :     9.468456881135076
 Root     37 :     9.630719883283401
 Root     38 :     9.852901682766879
 Root     39 :     9.901661770247319
 Root     40 :    10.005125449458978
 Iteration     2 Dimension    60 NMult    40 NNew     20
 CISAX will form    20 AO SS matrices at one time.
 NMat=    20 NSing=    20 JSym2X=-1.
 Root      1 not converged, maximum delta is    0.067454635350314
 Root      2 not converged, maximum delta is    0.070029114795935
 Root      3 not converged, maximum delta is    0.052557349324167
 Root      4 not converged, maximum delta is    0.107697870792163
 New state      5 was old state      7
 Root      5 not converged, maximum delta is    0.235300797526667
 New state      6 was old state      5
 Root      6 not converged, maximum delta is    0.042896454483522
 New state      7 was old state      9
 Root      7 not converged, maximum delta is    0.329873980167874
 New state      8 was old state      6
 Root      8 not converged, maximum delta is    0.054818409063085
 New state      9 was old state      8
 Root      9 not converged, maximum delta is    0.079053888371293
 Root     10 not converged, maximum delta is    0.191005753171853
 Excitation Energies [eV] at current iteration:
 Root      1 :     5.149497084918254   Change is   -0.234096608048929
 Root      2 :     5.374981803428748   Change is   -0.677156228780087
 Root      3 :     5.947407277680831   Change is   -0.139113259897799
 Root      4 :     6.471649753897585   Change is   -0.293059234721281
 Root      5 :     6.722167800121529   Change is   -0.418017202588131
 Root      6 :     6.782770927510667   Change is   -0.129500439330980
 Root      7 :     6.809616631625674   Change is   -0.615173550293414
 Root      8 :     6.931283665274547   Change is   -0.124887607765403
 Root      9 :     7.183619100962231   Change is   -0.104450358016721
 Root     10 :     7.355367760412710   Change is   -0.123740547958328
 Iteration     3 Dimension    80 NMult    60 NNew     20
 CISAX will form    20 AO SS matrices at one time.
 NMat=    20 NSing=    20 JSym2X=-1.
 Root      1 not converged, maximum delta is    0.011544670382385
 Root      2 not converged, maximum delta is    0.030610448560081
 Root      3 not converged, maximum delta is    0.006225099391644
 Root      4 not converged, maximum delta is    0.006147007149509
 Root      5 not converged, maximum delta is    0.217240717313486
 New state      6 was old state      7
 Root      6 not converged, maximum delta is    0.219087556780911
 New state      7 was old state      6
 Root      7 not converged, maximum delta is    0.005803181676266
 Root      8 not converged, maximum delta is    0.012033570459758
 Root      9 not converged, maximum delta is    0.017545063752938
 Root     10 not converged, maximum delta is    0.096693112188535
 Excitation Energies [eV] at current iteration:
 Root      1 :     5.142782664417944   Change is   -0.006714420500310
 Root      2 :     5.319328887228107   Change is   -0.055652916200641
 Root      3 :     5.944614223072784   Change is   -0.002793054608048
 Root      4 :     6.466007297713553   Change is   -0.005642456184032
 Root      5 :     6.681452479179397   Change is   -0.040715320942132
 Root      6 :     6.739109458460900   Change is   -0.070507173164774
 Root      7 :     6.779522944055404   Change is   -0.003247983455264
 Root      8 :     6.927159343256494   Change is   -0.004124322018053
 Root      9 :     7.174291124552083   Change is   -0.009327976410148
 Root     10 :     7.347966292476729   Change is   -0.007401467935982
 Iteration     4 Dimension   100 NMult    80 NNew     20
 CISAX will form    20 AO SS matrices at one time.
 NMat=    20 NSing=    20 JSym2X=-1.
 Root      1 not converged, maximum delta is    0.001235598376072
 Root      2 not converged, maximum delta is    0.003448573794307
 Root      3 not converged, maximum delta is    0.000708173753293
 Root      4 not converged, maximum delta is    0.001117298279281
 Root      5 not converged, maximum delta is    0.049728018171418
 Root      6 not converged, maximum delta is    0.050671759739994
 Root      7 not converged, maximum delta is    0.001361950408004
 Root      8 not converged, maximum delta is    0.003439734938982
 Root      9 not converged, maximum delta is    0.008212189972684
 Root     10 not converged, maximum delta is    0.115119535275691
 Excitation Energies [eV] at current iteration:
 Root      1 :     5.142573545165000   Change is   -0.000209119252944
 Root      2 :     5.314665818992045   Change is   -0.004663068236062
 Root      3 :     5.944540414567287   Change is   -0.000073808505497
 Root      4 :     6.465769190495322   Change is   -0.000238107218231
 Root      5 :     6.675326152989935   Change is   -0.006126326189461
 Root      6 :     6.732036771462978   Change is   -0.007072686997922
 Root      7 :     6.779357851684627   Change is   -0.000165092370776
 Root      8 :     6.926906459805505   Change is   -0.000252883450989
 Root      9 :     7.173190315895917   Change is   -0.001100808656165
 Root     10 :     7.343781108101128   Change is   -0.004185184375600
 Iteration     5 Dimension   120 NMult   100 NNew     20
 CISAX will form    20 AO SS matrices at one time.
 NMat=    20 NSing=    20 JSym2X=-1.
 Root      1 not converged, maximum delta is    0.000134345332180
 Root      2 not converged, maximum delta is    0.001046518201004
 Root      3 not converged, maximum delta is    0.000131201939562
 Root      4 not converged, maximum delta is    0.000424348581997
 Root      5 not converged, maximum delta is    0.004412109302185
 Root      6 not converged, maximum delta is    0.004535948931489
 Root      7 not converged, maximum delta is    0.000448549794646
 Root      8 not converged, maximum delta is    0.000446904333499
 Root      9 not converged, maximum delta is    0.000963652620654
 Root     10 not converged, maximum delta is    0.038289691819269
 Excitation Energies [eV] at current iteration:
 Root      1 :     5.142568337112897   Change is   -0.000005208052102
 Root      2 :     5.314407780573513   Change is   -0.000258038418531
 Root      3 :     5.944538474573465   Change is   -0.000001939993823
 Root      4 :     6.465755841463726   Change is   -0.000013349031595
 Root      5 :     6.674793380420232   Change is   -0.000532772569703
 Root      6 :     6.731500432781232   Change is   -0.000536338681746
 Root      7 :     6.779349086528264   Change is   -0.000008765156363
 Root      8 :     6.926896191907496   Change is   -0.000010267898009
 Root      9 :     7.173125509565268   Change is   -0.000064806330649
 Root     10 :     7.342439819814520   Change is   -0.001341288286608
 Iteration     6 Dimension   140 NMult   120 NNew     20
 CISAX will form    20 AO SS matrices at one time.
 NMat=    20 NSing=    20 JSym2X=-1.
 Root      1 not converged, maximum delta is    0.000020684257691
 Root      2 not converged, maximum delta is    0.000117406831042
 Root      3 not converged, maximum delta is    0.000028560691338
 Root      4 not converged, maximum delta is    0.000102710893394
 Root      5 not converged, maximum delta is    0.000401806862242
 Root      6 not converged, maximum delta is    0.000467762268563
 Root      7 not converged, maximum delta is    0.000138281642913
 Root      8 not converged, maximum delta is    0.000050601261795
 Root      9 not converged, maximum delta is    0.000141490242530
 Root     10 not converged, maximum delta is    0.006214097947763
 Excitation Energies [eV] at current iteration:
 Root      1 :     5.142568186058332   Change is   -0.000000151054565
 Root      2 :     5.314399080747856   Change is   -0.000008699825658
 Root      3 :     5.944538399966792   Change is   -0.000000074606673
 Root      4 :     6.465755178984629   Change is   -0.000000662479097
 Root      5 :     6.674755532999992   Change is   -0.000037847420240
 Root      6 :     6.731456540802567   Change is   -0.000043891978665
 Root      7 :     6.779348514178564   Change is   -0.000000572349700
 Root      8 :     6.926895734166077   Change is   -0.000000457741420
 Root      9 :     7.173121738751599   Change is   -0.000003770813670
 Root     10 :     7.342246690788591   Change is   -0.000193129025929
 Iteration     7 Dimension   160 NMult   140 NNew     20
 CISAX will form    20 AO SS matrices at one time.
 NMat=    20 NSing=    20 JSym2X=-1.
 Root      1 not converged, maximum delta is    0.000002845497317
 Root      2 not converged, maximum delta is    0.000018503266211
 Root      3 not converged, maximum delta is    0.000004016180199
 Root      4 not converged, maximum delta is    0.000013379076489
 Root      5 not converged, maximum delta is    0.000067432978421
 Root      6 not converged, maximum delta is    0.000063423357336
 Root      7 not converged, maximum delta is    0.000023954262278
 Root      8 not converged, maximum delta is    0.000006476543198
 Root      9 not converged, maximum delta is    0.000035274333375
 Root     10 not converged, maximum delta is    0.000472489315607
 Excitation Energies [eV] at current iteration:
 Root      1 :     5.142568182195197   Change is   -0.000000003863134
 Root      2 :     5.314398789371623   Change is   -0.000000291376233
 Root      3 :     5.944538397303463   Change is   -0.000000002663329
 Root      4 :     6.465755147164272   Change is   -0.000000031820358
 Root      5 :     6.674753706368791   Change is   -0.000001826631201
 Root      6 :     6.731454391720252   Change is   -0.000002149082315
 Root      7 :     6.779348478638307   Change is   -0.000000035540257
 Root      8 :     6.926895712858913   Change is   -0.000000021307164
 Root      9 :     7.173121554711289   Change is   -0.000000184040310
 Root     10 :     7.342232750768817   Change is   -0.000013940019774
 Iteration     8 Dimension   180 NMult   160 NNew     20
 CISAX will form    20 AO SS matrices at one time.
 NMat=    20 NSing=    20 JSym2X=-1.
 Root      1 has converged.
 Root      2 not converged, maximum delta is    0.000003412525398
 Root      3 has converged.
 Root      4 not converged, maximum delta is    0.000001357928742
 Root      5 not converged, maximum delta is    0.000016652518799
 Root      6 not converged, maximum delta is    0.000015477989560
 Root      7 not converged, maximum delta is    0.000001609780310
 Root      8 not converged, maximum delta is    0.000001196009701
 Root      9 not converged, maximum delta is    0.000006147196204
 Root     10 not converged, maximum delta is    0.000069420510882
 Excitation Energies [eV] at current iteration:
 Root      1 :     5.142568182097413   Change is   -0.000000000097785
 Root      2 :     5.314398780607759   Change is   -0.000000008763865
 Root      3 :     5.944538397213200   Change is   -0.000000000090263
 Root      4 :     6.465755145746069   Change is   -0.000000001418203
 Root      5 :     6.674753611898339   Change is   -0.000000094470452
 Root      6 :     6.731454268998589   Change is   -0.000000122721663
 Root      7 :     6.779348477326764   Change is   -0.000000001311543
 Root      8 :     6.926895711900404   Change is   -0.000000000958509
 Root      9 :     7.173121544942765   Change is   -0.000000009768525
 Root     10 :     7.342231879128283   Change is   -0.000000871640534
 Iteration     9 Dimension   196 NMult   180 NNew     16
 CISAX will form    16 AO SS matrices at one time.
 NMat=    16 NSing=    16 JSym2X=-1.
 Root      1 has converged.
 Root      2 has converged.
 Root      3 has converged.
 Root      4 has converged.
 Root      5 not converged, maximum delta is    0.000003468706374
 Root      6 not converged, maximum delta is    0.000003266068963
 Root      7 has converged.
 Root      8 has converged.
 Root      9 not converged, maximum delta is    0.000001024365703
 Root     10 not converged, maximum delta is    0.000015672994673
 Excitation Energies [eV] at current iteration:
 Root      1 :     5.142568182097254   Change is   -0.000000000000160
 Root      2 :     5.314398780304153   Change is   -0.000000000303606
 Root      3 :     5.944538397212177   Change is   -0.000000000001023
 Root      4 :     6.465755145692833   Change is   -0.000000000053235
 Root      5 :     6.674753605926625   Change is   -0.000000005971713
 Root      6 :     6.731454261967762   Change is   -0.000000007030827
 Root      7 :     6.779348477269129   Change is   -0.000000000057635
 Root      8 :     6.926895711850572   Change is   -0.000000000049833
 Root      9 :     7.173121544373958   Change is   -0.000000000568807
 Root     10 :     7.342231822893322   Change is   -0.000000056234961
 Iteration    10 Dimension   204 NMult   196 NNew      8
 CISAX will form     8 AO SS matrices at one time.
 NMat=     8 NSing=     8 JSym2X=-1.
 Root      1 has converged.
 Root      2 has converged.
 Root      3 has converged.
 Root      4 has converged.
 Root      5 has converged.
 Root      6 not converged, maximum delta is    0.000001000825363
 Root      7 has converged.
 Root      8 has converged.
 Root      9 has converged.
 Root     10 not converged, maximum delta is    0.000004869013222
 Excitation Energies [eV] at current iteration:
 Root      1 :     5.142568182097238   Change is   -0.000000000000016
 Root      2 :     5.314398780303673   Change is   -0.000000000000480
 Root      3 :     5.944538397212080   Change is   -0.000000000000097
 Root      4 :     6.465755145692770   Change is   -0.000000000000063
 Root      5 :     6.674753605626111   Change is   -0.000000000300515
 Root      6 :     6.731454261577306   Change is   -0.000000000390456
 Root      7 :     6.779348477268948   Change is   -0.000000000000182
 Root      8 :     6.926895711850618   Change is    0.000000000000047
 Root      9 :     7.173121544341157   Change is   -0.000000000032800
 Root     10 :     7.342231819316558   Change is   -0.000000003576765
 Iteration    11 Dimension   208 NMult   204 NNew      4
 CISAX will form     4 AO SS matrices at one time.
 NMat=     4 NSing=     4 JSym2X=-1.
 Root      1 has converged.
 Root      2 has converged.
 Root      3 has converged.
 Root      4 has converged.
 Root      5 has converged.
 Root      6 has converged.
 Root      7 has converged.
 Root      8 has converged.
 Root      9 has converged.
 Root     10 has converged.
 Excitation Energies [eV] at current iteration:
 Root      1 :     5.142568182097286   Change is    0.000000000000048
 Root      2 :     5.314398780303379   Change is   -0.000000000000294
 Root      3 :     5.944538397212191   Change is    0.000000000000111
 Root      4 :     6.465755145692783   Change is    0.000000000000013
 Root      5 :     6.674753605615481   Change is   -0.000000000010629
 Root      6 :     6.731454261555970   Change is   -0.000000000021336
 Root      7 :     6.779348477268983   Change is    0.000000000000036
 Root      8 :     6.926895711850655   Change is    0.000000000000036
 Root      9 :     7.173121544341215   Change is    0.000000000000057
 Root     10 :     7.342231819094832   Change is   -0.000000000221725
 Convergence achieved on expansion vectors.
 ***********************************************************************
 Excited states from <AA,BB:AA,BB> singles matrix:
 ***********************************************************************
 
 1PDM for each excited state written to RWF  633
 Ground to excited state transition densities written to RWF  633
 Ground to excited state transition electric dipole moments (Au):
       state          X           Y           Z        Dip. S.      Osc.
         1         0.0000     -0.0000      0.0048      0.0000      0.0000
         2        -0.2565      1.1845     -0.0000      1.4687      0.1912
         3        -0.0000     -0.0000     -0.0632      0.0040      0.0006
         4        -0.0000      0.0000     -0.0080      0.0001      0.0000
         5         0.1358     -0.5623      0.0000      0.3346      0.0547
         6        -1.1478      0.0877      0.0000      1.3250      0.2185
         7        -0.0000      0.0000      0.0895      0.0080      0.0013
         8        -0.0000      0.0000     -0.0011      0.0000      0.0000
         9        -0.0000     -0.0000     -0.0630      0.0040      0.0007
        10         0.0611      0.2317      0.0000      0.0574      0.0103
 Ground to excited state transition velocity dipole moments (Au):
       state          X           Y           Z        Dip. S.      Osc.
         1         0.0000      0.0000      0.0039      0.0000      0.0001
         2         0.0533     -0.2349      0.0000      0.0580      0.1980
         3         0.0000      0.0000      0.0137      0.0002      0.0006
         4         0.0000     -0.0000      0.0031      0.0000      0.0000
         5        -0.0306      0.1329      0.0000      0.0186      0.0505
         6         0.2823     -0.0274     -0.0000      0.0804      0.2168
         7         0.0000     -0.0000     -0.0253      0.0006      0.0017
         8        -0.0000      0.0000     -0.0024      0.0000      0.0000
         9         0.0000      0.0000      0.0055      0.0000      0.0001
        10        -0.0130     -0.0656     -0.0000      0.0045      0.0110
 Ground to excited state transition magnetic dipole moments (Au):
       state          X           Y           Z
         1         0.0901      0.7226     -0.0000
         2         0.0000      0.0000      1.1893
         3         0.0404      0.1227      0.0000
         4         0.7265     -0.4203     -0.0000
         5         0.0000     -0.0000      0.0418
         6        -0.0000      0.0000      0.6704
         7         0.3754      0.1100      0.0000
         8         0.2311      0.0977     -0.0000
         9        -0.1995      0.3304      0.0000
        10        -0.0000     -0.0000     -0.7877
 Ground to excited state transition velocity quadrupole moments (Au):
       state          XX          YY          ZZ          XY          XZ          YZ
         1        -0.0000     -0.0000     -0.0000     -0.0000     -0.0312      0.0192
         2        -0.0620      0.0004     -0.0100      0.1752     -0.0000      0.0000
         3         0.0000      0.0000     -0.0000     -0.0000     -0.0708      0.0184
         4        -0.0000     -0.0000     -0.0000      0.0000      0.0188      0.0495
         5        -0.1804      0.7021     -0.0264     -0.0060     -0.0000      0.0000
         6         0.2065      0.2091     -0.0763     -0.2084     -0.0000     -0.0000
         7        -0.0000      0.0000     -0.0000     -0.0000     -0.0482      0.2612
         8         0.0000      0.0000      0.0000     -0.0000      0.0332      0.1938
         9         0.0000     -0.0000      0.0000     -0.0000     -0.0352     -0.0324
        10        -0.1235     -0.0089      0.1656      0.2686      0.0000     -0.0000
 <0|del|b> * <b|rxdel|0> + <0|del|b> * <b|delr+rdel|0>
 Rotatory Strengths (R) in cgs (10**-40 erg-esu-cm/Gauss)
       state          XX          YY          ZZ    R(velocity)    E-M Angle
         1         0.0000      0.0000      0.0000      0.0000       90.00
         2        -0.0000      0.0000      0.0000      0.0000       90.00
         3         0.0000      0.0000      0.0000      0.0000       90.00
         4         0.0000      0.0000      0.0000      0.0000       90.00
         5         0.0000     -0.0000     -0.0000     -0.0000       90.00
         6        -0.0000     -0.0000      0.0000     -0.0000       90.00
         7        -0.0000      0.0000      0.0000      0.0000       90.00
         8         0.0000     -0.0000      0.0000      0.0000       90.00
         9         0.0000      0.0000      0.0000      0.0000       90.00
        10         0.0000      0.0000      0.0000      0.0000       90.00
 1/2[<0|r|b>*<b|rxdel|0> + (<0|rxdel|b>*<b|r|0>)*]
 Rotatory Strengths (R) in cgs (10**-40 erg-esu-cm/Gauss)
       state          XX          YY          ZZ     R(length)
         1        -0.0000      0.0000      0.0000      0.0000
         2         0.0000     -0.0000      0.0000     -0.0000
         3         0.0000      0.0000      0.0000      0.0000
         4         0.0000      0.0000     -0.0000      0.0000
         5        -0.0000     -0.0000     -0.0000     -0.0000
         6        -0.0000     -0.0000     -0.0000     -0.0000
         7         0.0000     -0.0000     -0.0000      0.0000
         8         0.0000     -0.0000     -0.0000      0.0000
         9        -0.0000      0.0000      0.0000      0.0000
        10         0.0000      0.0000      0.0000      0.0000
  1/2[<0|del|b>*<b|r|0> + (<0|r|b>*<b|del|0>)*] (Au)
       state          X           Y           Z        Dip. S.   Osc.(frdel)
         1         0.0000     -0.0000      0.0000     -0.0000     -0.0000
         2        -0.0137     -0.2782     -0.0000      0.2919      0.1946
         3        -0.0000     -0.0000     -0.0009      0.0009      0.0006
         4        -0.0000     -0.0000     -0.0000      0.0000      0.0000
         5        -0.0042     -0.0747      0.0000      0.0789      0.0526
         6        -0.3240     -0.0024     -0.0000      0.3264      0.2176
         7        -0.0000     -0.0000     -0.0023      0.0023      0.0015
         8         0.0000      0.0000      0.0000     -0.0000     -0.0000
         9        -0.0000     -0.0000     -0.0003      0.0003      0.0002
        10        -0.0008     -0.0152     -0.0000      0.0160      0.0107

 Excitation energies and oscillator strengths:
 
 Excited State   1:      Singlet-A"     5.1426 eV  241.09 nm  f=0.0000  <S**2>=0.000
      30 -> 34        -0.18938
      32 -> 34         0.62803
      32 -> 38        -0.20909
 
 Excited State   2:      Singlet-A'     5.3144 eV  233.30 nm  f=0.1912  <S**2>=0.000
      33 -> 34         0.69017
 
 Excited State   3:      Singlet-A"     5.9445 eV  208.57 nm  f=0.0006  <S**2>=0.000
      33 -> 35         0.69012
 This state for optimization and/or second-order correction.
 Total Energy, E(TD-HF/TD-DFT) =  -453.856253776    
 Copying the excited state density for this state as the 1-particle RhoCI density.
 
 Excited State   4:      Singlet-A"     6.4658 eV  191.76 nm  f=0.0000  <S**2>=0.000
      30 -> 34         0.25974
      30 -> 38         0.38301
      30 -> 39        -0.20254
      30 -> 52         0.11665
      32 -> 34         0.16494
      32 -> 38         0.39748
      32 -> 39        -0.17721
 
 Excited State   5:      Singlet-A'     6.6748 eV  185.75 nm  f=0.0547  <S**2>=0.000
      31 -> 34         0.68634
 
 Excited State   6:      Singlet-A'     6.7315 eV  184.19 nm  f=0.2185  <S**2>=0.000
      33 -> 38         0.66365
      33 -> 39        -0.18842
 
 Excited State   7:      Singlet-A"     6.7793 eV  182.89 nm  f=0.0013  <S**2>=0.000
      33 -> 36         0.27388
      33 -> 37         0.59719
      33 -> 41        -0.19371
 
 Excited State   8:      Singlet-A"     6.9269 eV  178.99 nm  f=0.0000  <S**2>=0.000
      33 -> 36         0.61027
      33 -> 37        -0.27521
      33 -> 40        -0.12310
 
 Excited State   9:      Singlet-A"     7.1731 eV  172.85 nm  f=0.0007  <S**2>=0.000
      30 -> 34         0.61444
      30 -> 38        -0.20747
      32 -> 34         0.14621
      32 -> 38        -0.19627
 
 Excited State  10:      Singlet-A'     7.3422 eV  168.86 nm  f=0.0103  <S**2>=0.000
      32 -> 35        -0.28799
      32 -> 37         0.29123
      33 -> 38         0.13451
      33 -> 39         0.52305
 SavETr:  write IOETrn=   770 NScale= 10 NData=  16 NLR=1 NState=   10 LETran=     190.
 The selected state is a singlet.
 CISGrd: IGrad=3 NXY=2 DFT=T
 CISAX will form     1 AO SS matrices at one time.
 NMat=     1 NSing=     1 JSym2X=-1.
 Leave Link  914 at Fri Nov 25 12:01:07 2022, MaxMem=  1342177280 cpu:            1042.6 elap:              21.3
 (Enter /shared/gaussian/g16.b01/AVX2/g16/l1002.exe)
 Minotr:  Closed shell wavefunction.
          Computing CIS/TDA/TD derivatives.
          Using Z-Vector for PSCF gradient.
          Skipping F1 and S1 gradient terms here.
          IDoAtm=111111111111111
          Frozen-core window.
          Direct CPHF calculation.
          Differentiating once with respect to electric field.
                with respect to dipole field.
          Differentiating once with respect to nuclear coordinates.
          Requested convergence is 1.0D-10 RMS, and 1.0D-09 maximum.
          NewPWx=F KeepS1=T KeepF1=T KeepIn=T MapXYZ=F SortEE=F KeepMc=T.
 Keep R1 ints in memory in symmetry-blocked form, NReq=1150524893.
 FoFCou: FMM=F IPFlag=           0 FMFlag=           0 FMFlg1=           0
         NFxFlg=           0 DoJE=F BraDBF=F KetDBF=F FulRan=T
         wScrn=  0.000000 ICntrl=       600 IOpCl=  0 I1Cent=           0 NGrid=           0
         NMat0=    1 NMatS0=  27495 NMatT0=    0 NMatD0=    1 NMtDS0=    0 NMtDT0=    0
 Petite list used in FoFCou.
 Two-electron integral symmetry used by symmetrizing perturbed Fock matrices.
          MDV=    1342177280 using IRadAn=       5.
          Solving linear equations separately, MaxMat=       0.
          There are     1 degrees of freedom in the 1st order CPHF.  IDoFFX=0 NUNeed=     1.
 LinEq1:  Iter=  0 NonCon=     1 RMS=7.98D-03 Max=1.33D-01 NDo=     1
 AX will form     1 AO Fock derivatives at one time.
 LinEq1:  Iter=  1 NonCon=     1 RMS=2.46D-03 Max=4.74D-02 NDo=     1
 LinEq1:  Iter=  2 NonCon=     1 RMS=1.38D-03 Max=2.92D-02 NDo=     1
 LinEq1:  Iter=  3 NonCon=     1 RMS=7.08D-04 Max=1.23D-02 NDo=     1
 LinEq1:  Iter=  4 NonCon=     1 RMS=4.96D-04 Max=1.32D-02 NDo=     1
 LinEq1:  Iter=  5 NonCon=     1 RMS=2.15D-04 Max=6.70D-03 NDo=     1
 LinEq1:  Iter=  6 NonCon=     1 RMS=1.09D-04 Max=2.08D-03 NDo=     1
 LinEq1:  Iter=  7 NonCon=     1 RMS=5.73D-05 Max=1.57D-03 NDo=     1
 LinEq1:  Iter=  8 NonCon=     1 RMS=2.96D-05 Max=9.29D-04 NDo=     1
 LinEq1:  Iter=  9 NonCon=     1 RMS=1.23D-05 Max=3.23D-04 NDo=     1
 LinEq1:  Iter= 10 NonCon=     1 RMS=8.29D-06 Max=3.21D-04 NDo=     1
 LinEq1:  Iter= 11 NonCon=     1 RMS=2.85D-06 Max=6.90D-05 NDo=     1
 LinEq1:  Iter= 12 NonCon=     1 RMS=1.52D-06 Max=3.42D-05 NDo=     1
 LinEq1:  Iter= 13 NonCon=     1 RMS=4.31D-07 Max=7.49D-06 NDo=     1
 LinEq1:  Iter= 14 NonCon=     1 RMS=2.04D-07 Max=4.92D-06 NDo=     1
 LinEq1:  Iter= 15 NonCon=     1 RMS=6.87D-08 Max=1.60D-06 NDo=     1
 LinEq1:  Iter= 16 NonCon=     1 RMS=1.89D-08 Max=4.64D-07 NDo=     1
 LinEq1:  Iter= 17 NonCon=     1 RMS=8.63D-09 Max=1.74D-07 NDo=     1
 LinEq1:  Iter= 18 NonCon=     1 RMS=2.78D-09 Max=5.09D-08 NDo=     1
 LinEq1:  Iter= 19 NonCon=     1 RMS=6.03D-10 Max=9.30D-09 NDo=     1
 LinEq1:  Iter= 20 NonCon=     1 RMS=1.09D-10 Max=1.98D-09 NDo=     1
 LinEq1:  Iter= 21 NonCon=     0 RMS=2.32D-11 Max=4.64D-10 NDo=     1
 Linear equations converged to 1.000D-10 1.000D-09 after    21 iterations.
          There are     1 degrees of freedom in the 1st order CPHF.  IDoFFX=0 NUNeed=     1.
 End of Minotr F.D. properties file   721 does not exist.
 End of Minotr F.D. properties file   722 does not exist.
 End of Minotr F.D. properties file   788 does not exist.
 Leave Link 1002 at Fri Nov 25 12:01:17 2022, MaxMem=  1342177280 cpu:             268.5 elap:              10.4
 (Enter /shared/gaussian/g16.b01/AVX2/g16/l1101.exe)
 Using compressed Sx but separate Hx and Fx, NAtomX=    15.
 Will process     16 centers per pass.
 Leave Link 1101 at Fri Nov 25 12:01:17 2022, MaxMem=  1342177280 cpu:              10.4 elap:               0.2
 (Enter /shared/gaussian/g16.b01/AVX2/g16/l1102.exe)
 Use density number 6.
 Symmetrizing basis deriv contribution to polar:
 IMax=3 JMax=2 DiffMx= 0.00D+00
 Leave Link 1102 at Fri Nov 25 12:01:17 2022, MaxMem=  1342177280 cpu:               0.9 elap:               0.0
 (Enter /shared/gaussian/g16.b01/AVX2/g16/l1110.exe)
 Forming Gx(P) for the SCF density, NAtomX=    15.
 Integral derivatives from FoFJK, PRISM(SPDF).
 Do as many integral derivatives as possible in FoFJK.
 G2DrvN: MDV=    1342175944.
 G2DrvN: will do    16 centers at a time, making    1 passes.
 Calling FoFCou, ICntrl=  3107 FMM=F I1Cent=   0 AccDes= 0.00D+00.
 FoFJK:  IHMeth= 1 ICntrl=    3107 DoSepK=T KAlg= 0 I1Cent=           0 FoldK=F
 IRaf=         1 NMat=       1 IRICut=       1 DoRegI=T DoRafI=F ISym2E= 1 IDoP0=0 IntGTp=1.
 FoFCou: FMM=F IPFlag=           0 FMFlag=      100000 FMFlg1=           0
         NFxFlg=           0 DoJE=F BraDBF=F KetDBF=F FulRan=T
         wScrn=  0.000000 ICntrl=      3507 IOpCl=  0 I1Cent=           0 NGrid=           0
         NMat0=    1 NMatS0=      1 NMatT0=    0 NMatD0=    1 NMtDS0=    0 NMtDT0=    0
 Petite list used in FoFCou.
 Forming Gx(P) for generalized density number  6 NAtomX=    15.
 Integral derivatives from FoFJK, PRISM(SPDF).
 Do as many integral derivatives as possible in FoFJK.
 G2DrvN: MDV=    1342175944.
 G2DrvN: will do    16 centers at a time, making    1 passes.
 Calling FoFCou, ICntrl=  3107 FMM=F I1Cent=   0 AccDes= 0.00D+00.
 Forming Gx(T) for CIS/TDA/TD state  3 NAtomX=    15.
 Integral derivatives from FoFJK, PRISM(SPDF).
 Do as many integral derivatives as possible in FoFJK.
 G2DrvN: MDV=    1342175944.
 G2DrvN: will do    16 centers at a time, making    1 passes.
 Calling FoFCou, ICntrl=  3107 FMM=F I1Cent=   0 AccDes= 0.00D+00.
 End of G2Drv F.D. properties file   721 does not exist.
 End of G2Drv F.D. properties file   722 does not exist.
 End of G2Drv F.D. properties file   788 does not exist.
 Leave Link 1110 at Fri Nov 25 12:01:30 2022, MaxMem=  1342177280 cpu:             611.0 elap:              12.3
 (Enter /shared/gaussian/g16.b01/AVX2/g16/l1002.exe)
 Minotr:  Closed shell wavefunction.
          IDoAtm=111111111111111
          Frozen-core window.
          Direct CPHF calculation.
          Differentiating once with respect to electric field.
                with respect to dipole field.
          Differentiating once with respect to nuclear coordinates.
          Requested convergence is 1.0D-08 RMS, and 1.0D-07 maximum.
          Secondary convergence is 1.0D-12 RMS, and 1.0D-12 maximum.
          NewPWx=T KeepS1=T KeepF1=T KeepIn=T MapXYZ=F SortEE=F KeepMc=T.
         4625 words used for storage of precomputed grid.
 Keep R1 ints in memory in symmetry-blocked form, NReq=1150529518.
 FoFCou: FMM=F IPFlag=           0 FMFlag=           0 FMFlg1=           0
         NFxFlg=           0 DoJE=F BraDBF=F KetDBF=F FulRan=T
         wScrn=  0.000000 ICntrl=       600 IOpCl=  0 I1Cent=           0 NGrid=           0
         NMat0=    1 NMatS0=  27495 NMatT0=    0 NMatD0=    1 NMtDS0=    0 NMtDT0=    0
 Petite list used in FoFCou.
          MDV=    1342177280 using IRadAn=       1.
          Solving linear equations simultaneously, MaxMat=       0.
          There are    48 degrees of freedom in the 1st order CPHF.  IDoFFX=6 NUNeed=    48.
     45 vectors produced by pass  0 Test12= 1.38D-14 2.08D-09 XBig12= 6.26D+01 5.13D+00.
 AX will form    45 AO Fock derivatives at one time.
     45 vectors produced by pass  1 Test12= 1.38D-14 2.08D-09 XBig12= 1.03D+01 4.76D-01.
     45 vectors produced by pass  2 Test12= 1.38D-14 2.08D-09 XBig12= 2.19D-01 1.04D-01.
     45 vectors produced by pass  3 Test12= 1.38D-14 2.08D-09 XBig12= 2.12D-03 9.24D-03.
     45 vectors produced by pass  4 Test12= 1.38D-14 2.08D-09 XBig12= 1.54D-05 5.52D-04.
     45 vectors produced by pass  5 Test12= 1.38D-14 2.08D-09 XBig12= 8.10D-08 3.82D-05.
     37 vectors produced by pass  6 Test12= 1.38D-14 2.08D-09 XBig12= 2.92D-10 2.28D-06.
     14 vectors produced by pass  7 Test12= 1.38D-14 2.08D-09 XBig12= 1.09D-12 1.71D-07.
      3 vectors produced by pass  8 Test12= 1.38D-14 2.08D-09 XBig12= 4.46D-15 1.04D-08.
 InvSVY:  IOpt=1 It=  1 EMax= 3.55D-15
 Solved reduced A of dimension   324 with    48 vectors.
 FullF1:  Do perturbations      1 to      48.
 Isotropic polarizability for W=    0.000000       77.06 Bohr**3.
 Saving first derivative matrices.
 End of Minotr F.D. properties file   721 does not exist.
 End of Minotr F.D. properties file   722 does not exist.
 End of Minotr F.D. properties file   788 does not exist.
 Leave Link 1002 at Fri Nov 25 12:01:40 2022, MaxMem=  1342177280 cpu:             510.2 elap:              10.2
 (Enter /shared/gaussian/g16.b01/AVX2/g16/l1014.exe)
 This link is doing    48 degrees of freedom
 Form MO integral derivatives with frozen-active canonical formalism.
 CISSec: MDV=    1342170192
 Doing TD-HF/TD-DFT second derivatives, IDoFFX=6 IOneXC=4 IRadAn=         1.
 Frozen orbitals handled with amplitudes over full window.
 Frozen-core window:  NFC=   9 NFV=   0.
 Symmetry is being used.
 Keep R1, R2, and R3 ints in memory in symmetry-blocked form, NReq=1150584035.
 FoFCou: FMM=F IPFlag=           0 FMFlag=           0 FMFlg1=           0
         NFxFlg=           0 DoJE=F BraDBF=F KetDBF=F FulRan=T
         wScrn=  0.000000 ICntrl=       600 IOpCl=  0 I1Cent=           0 NGrid=           0
         NMat0=    1 NMatS0=  27495 NMatT0=    0 NMatD0=    1 NMtDS0=    0 NMtDT0=    0
 Petite list used in FoFCou.
 The selected state is a singlet.
 CISGrX: IGrad=3 NXY=2 DFT=T
 CISAX will form    48 AO SS matrices at one time.
 NMat=    48 NSing=    48 JSym2X= 2.
     45 vectors produced by pass  0 Test12= 2.01D-14 2.08D-09 XBig12= 1.84D+02 9.58D+00.
 AX will form    45 AO Fock derivatives at one time.
     45 vectors produced by pass  1 Test12= 2.01D-14 2.08D-09 XBig12= 1.28D+01 2.15D+00.
     45 vectors produced by pass  2 Test12= 2.01D-14 2.08D-09 XBig12= 4.99D-01 1.81D-01.
     45 vectors produced by pass  3 Test12= 2.01D-14 2.08D-09 XBig12= 1.50D-02 2.43D-02.
     45 vectors produced by pass  4 Test12= 2.01D-14 2.08D-09 XBig12= 6.35D-04 4.57D-03.
     45 vectors produced by pass  5 Test12= 2.01D-14 2.08D-09 XBig12= 2.33D-05 7.12D-04.
     45 vectors produced by pass  6 Test12= 2.01D-14 2.08D-09 XBig12= 5.84D-07 1.52D-04.
     36 vectors produced by pass  7 Test12= 2.01D-14 2.08D-09 XBig12= 8.09D-09 1.18D-05.
     17 vectors produced by pass  8 Test12= 2.01D-14 2.08D-09 XBig12= 9.30D-11 1.61D-06.
      7 vectors produced by pass  9 Test12= 2.01D-14 2.08D-09 XBig12= 1.14D-12 1.57D-07.
      1 vectors produced by pass 10 Test12= 2.01D-14 2.08D-09 XBig12= 1.44D-14 2.02D-08.
 InvSVY:  IOpt=1 It=  1 EMax= 7.57D-15
 Solved reduced A of dimension   376 with    48 vectors.
 Tx.T = -4.43D-04 for pert.     2
 Tx.T = -1.26D-04 for pert.     1
 Tx.T =  7.25D-05 for pert.    20
 Tx.T = -5.87D-05 for pert.    35
 Tx.T = -3.66D-05 for pert.    16
 Tx.T = -3.60D-05 for pert.    17
 Tx.T =  2.00D-05 for pert.    14
 Tx.T =  1.67D-05 for pert.    19
 Tx.T =  1.02D-05 for pert.    13
 Tx.T =  8.55D-06 for pert.    34
 SavDET:  read IOETrn=   770 NScale= 10 NData=  16 NLR=1 NState=   10 NDeriv=    0 LETran=     190.
 SavDET: write IOETrn=   770 NScale= 10 NData=  16 NLR=1 NState=   10 NDeriv=   48 LETran=     958.
 TDDxLx will form    48 C1x/S1x matrices at one time.
 Interchange theorem applied.
 FoFJK:  IHMeth= 1 ICntrl=    5100 DoSepK=T KAlg= 0 I1Cent=           0 FoldK=F
 IRaf=         1 NMat=       1 IRICut=       1 DoRegI=T DoRafI=F ISym2E= 0 IDoP0=0 IntGTp=1.
 Leave Link 1014 at Fri Nov 25 12:01:58 2022, MaxMem=  1342177280 cpu:             896.5 elap:              18.4
 (Enter /shared/gaussian/g16.b01/AVX2/g16/l601.exe)
 Copying SCF densities to generalized density rwf, IOpCl= 0 IROHF=0.

 **********************************************************************

            Population analysis using the SCF Density.

 **********************************************************************

 Orbital symmetries:
       Occupied  (A') (A') (A') (A') (A') (A') (A') (A') (A') (A')
                 (A') (A') (A') (A') (A') (A') (A') (A') (A') (A')
                 (A") (A') (A') (A') (A") (A') (A") (A') (A") (A')
                 (A") (A') (A")
       Virtual   (A") (A') (A') (A') (A") (A") (A') (A') (A') (A")
                 (A") (A') (A') (A') (A") (A') (A') (A') (A") (A")
                 (A') (A") (A') (A') (A') (A') (A') (A') (A") (A')
                 (A") (A') (A') (A') (A') (A") (A') (A') (A') (A')
                 (A') (A') (A") (A') (A') (A') (A') (A') (A') (A')
                 (A") (A') (A') (A') (A') (A') (A') (A") (A') (A")
                 (A") (A') (A") (A') (A") (A') (A') (A') (A') (A')
                 (A') (A') (A') (A") (A') (A') (A") (A') (A') (A')
                 (A') (A") (A') (A') (A") (A') (A") (A") (A') (A")
                 (A') (A") (A') (A') (A') (A") (A') (A") (A') (A')
                 (A") (A') (A") (A') (A') (A') (A") (A") (A') (A')
                 (A") (A') (A") (A') (A') (A') (A') (A") (A') (A')
                 (A') (A') (A") (A') (A") (A') (A') (A') (A') (A')
                 (A") (A') (A") (A") (A') (A') (A") (A') (A") (A')
                 (A") (A') (A") (A') (A') (A') (A') (A') (A") (A")
                 (A") (A') (A') (A") (A') (A') (A') (A") (A') (A')
                 (A") (A') (A') (A') (A") (A") (A') (A') (A') (A')
                 (A') (A') (A') (A') (A") (A") (A') (A") (A') (A')
                 (A') (A') (A') (A') (A') (A") (A") (A') (A') (A')
                 (A') (A') (A') (A') (A') (A') (A') (A') (A') (A')
                 (A')
 The electronic state is 1-A'.
 Alpha  occ. eigenvalues --  -19.18506 -19.18389 -14.46254 -14.44870 -10.40961
 Alpha  occ. eigenvalues --  -10.37656 -10.33047 -10.27865 -10.25540  -1.17874
 Alpha  occ. eigenvalues --   -1.14626  -1.07595  -1.02248  -0.91389  -0.80632
 Alpha  occ. eigenvalues --   -0.76868  -0.75140  -0.65566  -0.65174  -0.60221
 Alpha  occ. eigenvalues --   -0.57170  -0.55457  -0.52377  -0.51058  -0.50867
 Alpha  occ. eigenvalues --   -0.48264  -0.47949  -0.46529  -0.43743  -0.37633
 Alpha  occ. eigenvalues --   -0.36263  -0.34676  -0.31071
 Alpha virt. eigenvalues --   -0.00845   0.00927   0.03499   0.03649   0.04544
 Alpha virt. eigenvalues --    0.05658   0.06162   0.07298   0.07681   0.08723
 Alpha virt. eigenvalues --    0.09828   0.10048   0.10770   0.12155   0.13774
 Alpha virt. eigenvalues --    0.14345   0.14806   0.15422   0.15719   0.16976
 Alpha virt. eigenvalues --    0.17092   0.18675   0.18811   0.19696   0.20870
 Alpha virt. eigenvalues --    0.21365   0.22914   0.23796   0.24088   0.24159
 Alpha virt. eigenvalues --    0.24435   0.25328   0.25881   0.28100   0.29063
 Alpha virt. eigenvalues --    0.29995   0.30094   0.30405   0.30822   0.32611
 Alpha virt. eigenvalues --    0.33363   0.34812   0.35098   0.35576   0.37105
 Alpha virt. eigenvalues --    0.38118   0.39543   0.41525   0.42126   0.43601
 Alpha virt. eigenvalues --    0.46572   0.47768   0.52072   0.53990   0.55891
 Alpha virt. eigenvalues --    0.58123   0.59470   0.59954   0.62667   0.63067
 Alpha virt. eigenvalues --    0.63439   0.65822   0.66157   0.68736   0.70141
 Alpha virt. eigenvalues --    0.70278   0.72058   0.74002   0.75508   0.77956
 Alpha virt. eigenvalues --    0.78642   0.82707   0.84090   0.86011   0.86553
 Alpha virt. eigenvalues --    0.89891   0.90219   0.91623   0.92976   0.96832
 Alpha virt. eigenvalues --    0.98400   1.01521   1.02854   1.08026   1.08172
 Alpha virt. eigenvalues --    1.13639   1.16821   1.17270   1.17730   1.20320
 Alpha virt. eigenvalues --    1.20658   1.23891   1.24655   1.25106   1.25925
 Alpha virt. eigenvalues --    1.28923   1.29391   1.33548   1.37331   1.40453
 Alpha virt. eigenvalues --    1.42992   1.48404   1.52180   1.55441   1.58572
 Alpha virt. eigenvalues --    1.59775   1.61773   1.63305   1.63427   1.68253
 Alpha virt. eigenvalues --    1.70549   1.71729   1.73410   1.77177   1.78492
 Alpha virt. eigenvalues --    1.83052   1.85402   1.85621   1.88496   1.89484
 Alpha virt. eigenvalues --    1.92067   1.93859   1.98843   2.02864   2.04311
 Alpha virt. eigenvalues --    2.05662   2.09300   2.15444   2.20097   2.21158
 Alpha virt. eigenvalues --    2.28933   2.31319   2.35484   2.38984   2.39352
 Alpha virt. eigenvalues --    2.46292   2.47297   2.52487   2.52694   2.58036
 Alpha virt. eigenvalues --    2.58559   2.62207   2.64493   2.65543   2.70245
 Alpha virt. eigenvalues --    2.71617   2.75087   2.81765   2.82305   2.85330
 Alpha virt. eigenvalues --    2.87511   2.91888   2.93201   2.95545   2.95556
 Alpha virt. eigenvalues --    2.97723   3.00526   3.00837   3.04891   3.05656
 Alpha virt. eigenvalues --    3.05973   3.18188   3.22170   3.36280   3.43290
 Alpha virt. eigenvalues --    3.44129   3.47040   3.50826   3.54682   3.61887
 Alpha virt. eigenvalues --    3.65604   3.69249   3.71995   3.77932   3.85673
 Alpha virt. eigenvalues --    3.88786   3.91723   3.93505   3.98079   4.09795
 Alpha virt. eigenvalues --    4.27885   4.37188   4.77830   4.87809   4.93666
 Alpha virt. eigenvalues --    5.10721   5.13409   5.21872   5.27130   5.41976
 Alpha virt. eigenvalues --    5.82884   5.87277  23.73032  23.90409  23.95199
 Alpha virt. eigenvalues --   24.01724  24.24756  35.62291  35.67855  50.05645
 Alpha virt. eigenvalues --   50.10687
          Condensed to atoms (all electrons):
               1          2          3          4          5          6
     1  N    7.085708   0.301348  -0.269981   0.194354   0.233085  -0.333051
     2  C    0.301348   5.038359   0.157818  -0.231765   0.389685  -0.455967
     3  N   -0.269981   0.157818   7.413103  -0.166890  -0.384201   0.572279
     4  C    0.194354  -0.231765  -0.166890   6.989660  -0.484348  -0.553534
     5  C    0.233085   0.389685  -0.384201  -0.484348   7.881862  -1.893579
     6  C   -0.333051  -0.455967   0.572279  -0.553534  -1.893579   8.746888
     7  O   -0.133808   0.399727  -0.100084   0.025638  -0.038873   0.068191
     8  O    0.000256   0.035246  -0.103011   0.349036  -0.103978  -0.030252
     9  H    0.344795  -0.022555   0.011846  -0.008518   0.001485  -0.010488
    10  H    0.012207  -0.021225   0.325549  -0.007545   0.027008  -0.024767
    11  C    0.006084  -0.021901  -0.000589  -0.222911  -0.172598  -0.105020
    12  H   -0.049015   0.011138  -0.005232  -0.002750   0.044225   0.322826
    13  H   -0.000998   0.001367  -0.000173  -0.018323  -0.159431   0.053181
    14  H    0.001300   0.000938  -0.000382   0.014487   0.033781  -0.029764
    15  H    0.001300   0.000938  -0.000382   0.014487   0.033781  -0.029764
               7          8          9         10         11         12
     1  N   -0.133808   0.000256   0.344795   0.012207   0.006084  -0.049015
     2  C    0.399727   0.035246  -0.022555  -0.021225  -0.021901   0.011138
     3  N   -0.100084  -0.103011   0.011846   0.325549  -0.000589  -0.005232
     4  C    0.025638   0.349036  -0.008518  -0.007545  -0.222911  -0.002750
     5  C   -0.038873  -0.103978   0.001485   0.027008  -0.172598   0.044225
     6  C    0.068191  -0.030252  -0.010488  -0.024767  -0.105020   0.322826
     7  O    8.126956   0.001582   0.011439   0.007458   0.004441  -0.000133
     8  O    0.001582   8.121174  -0.000040   0.009051   0.059880  -0.000061
     9  H    0.011439  -0.000040   0.341455  -0.000083   0.000487  -0.004488
    10  H    0.007458   0.009051  -0.000083   0.320744   0.004138   0.000070
[...]
      7  -0.424186D-03 -0.798164D-03  0.000000D+00 -0.131980D-01  0.233600D-01
      8  -0.330456D-02 -0.648092D-02  0.000000D+00 -0.676556D-01  0.171400D+00
      9  -0.122760D-01  0.161522D-02  0.000000D+00 -0.961479D-01  0.212720D+00
     10   0.000000D+00  0.000000D+00 -0.424028D-01  0.000000D+00  0.000000D+00
     11   0.000000D+00  0.000000D+00  0.225730D-01  0.000000D+00  0.000000D+00
     12   0.000000D+00  0.000000D+00 -0.636990D-02  0.000000D+00  0.000000D+00
     13   0.000000D+00  0.000000D+00  0.383044D-02  0.000000D+00  0.000000D+00
     14   0.000000D+00  0.000000D+00 -0.222288D-01  0.000000D+00  0.000000D+00
     15   0.635227D-02 -0.442596D-03  0.000000D+00  0.690065D-01 -0.157078D+00
     16  -0.903568D-03 -0.356300D-02  0.000000D+00 -0.390252D-01  0.892707D-01
                36            37            38            39            40 
      1   0.000000D+00  0.000000D+00  0.000000D+00  0.000000D+00  0.000000D+00
      2   0.123619D+00  0.000000D+00  0.000000D+00 -0.642321D-01  0.000000D+00
      3   0.155982D+00  0.000000D+00  0.000000D+00 -0.143175D+00  0.000000D+00
      4   0.000000D+00 -0.204013D-01 -0.700745D-01  0.000000D+00 -0.854585D-02
      5  -0.283309D-01  0.000000D+00  0.000000D+00  0.147647D-01  0.000000D+00
      6  -0.332599D-01  0.000000D+00  0.000000D+00  0.301640D-01  0.000000D+00
      7   0.000000D+00  0.299995D-02  0.144930D-01  0.000000D+00  0.172279D-02
      8   0.000000D+00  0.452100D-01 -0.362979D-01  0.000000D+00 -0.800000D-02
      9   0.000000D+00 -0.107989D-01 -0.538929D-01  0.000000D+00  0.129679D-01
     10  -0.335698D-01  0.000000D+00  0.000000D+00 -0.144878D+00  0.000000D+00
     11   0.288376D-01  0.000000D+00  0.000000D+00 -0.528805D-01  0.000000D+00
     12   0.123529D+00  0.000000D+00  0.000000D+00 -0.468079D-01  0.000000D+00
     13   0.139088D-01  0.000000D+00  0.000000D+00 -0.107861D-01  0.000000D+00
     14  -0.162342D-01  0.000000D+00  0.000000D+00 -0.117005D+00  0.000000D+00
     15   0.000000D+00  0.413036D-02 -0.239269D-01  0.000000D+00 -0.735397D-02
     16   0.000000D+00 -0.377487D-02 -0.684555D-01  0.000000D+00 -0.639995D-03
                41            42            43            44            45 
      1   0.000000D+00  0.000000D+00  0.000000D+00  0.000000D+00  0.000000D+00
      2   0.000000D+00  0.228932D-01 -0.448026D-01 -0.354419D-01 -0.621174D-01
      3   0.000000D+00  0.351938D-02 -0.558775D-01 -0.109667D-02 -0.124019D-01
      4   0.389535D-02  0.000000D+00 -0.114446D-01  0.335737D-01  0.276079D-01
      5   0.000000D+00 -0.490982D-02  0.950878D-02  0.753732D-02  0.134844D-01
      6   0.000000D+00 -0.948752D-03  0.119770D-01  0.381675D-03  0.280738D-02
      7  -0.581891D-03  0.000000D+00  0.246473D-02 -0.763182D-02 -0.543403D-02
      8  -0.206353D-01  0.000000D+00 -0.199236D-01 -0.344974D-01 -0.609284D-01
      9   0.131123D-01  0.000000D+00 -0.179700D-03 -0.520823D-01 -0.605106D-01
     10   0.000000D+00  0.111035D-01 -0.230864D-01  0.842515D-02  0.348374D-01
     11   0.000000D+00  0.304900D-01 -0.283212D-01 -0.307625D-01 -0.639139D-02
     12   0.000000D+00 -0.650725D-02 -0.153808D-01  0.759156D-02  0.711754D-04
     13   0.000000D+00  0.932209D-02 -0.571350D-02 -0.129563D-01 -0.408021D-01
     14   0.000000D+00  0.295903D-01 -0.417030D-01 -0.686780D-02  0.156621D-01
     15   0.138537D-01  0.000000D+00 -0.123821D-01  0.365414D-01  0.349073D-01
     16  -0.181637D-02  0.000000D+00 -0.126260D-01 -0.227195D-01 -0.258944D-01
                46            47            48 
      1   0.000000D+00  0.000000D+00  0.000000D+00
      2   0.448026D-01  0.354419D-01 -0.621174D-01
      3   0.558775D-01  0.109667D-02 -0.124019D-01
      4  -0.114446D-01  0.335737D-01 -0.276079D-01
      5  -0.950878D-02 -0.753732D-02  0.134844D-01
      6  -0.119770D-01 -0.381675D-03  0.280738D-02
      7   0.246473D-02 -0.763182D-02  0.543403D-02
      8  -0.199236D-01 -0.344974D-01  0.609284D-01
      9  -0.179700D-03 -0.520823D-01  0.605106D-01
     10   0.230864D-01 -0.842515D-02  0.348374D-01
     11   0.283212D-01  0.307625D-01 -0.639139D-02
     12   0.153808D-01 -0.759156D-02  0.711754D-04
     13   0.571350D-02  0.129563D-01 -0.408021D-01
     14   0.417030D-01  0.686780D-02  0.156621D-01
     15  -0.123821D-01  0.365414D-01 -0.349073D-01
     16  -0.126260D-01 -0.227195D-01  0.258944D-01

 ----------------------------------------------------------------------

 Electric dipole moment (input orientation):
 (Debye = 10**-18 statcoulomb cm , SI units = C m)
                  (au)            (Debye)         (10**-30 SI)
   Tot        0.219848D+01      0.558797D+01      0.186395D+02
   x         -0.356146D+00     -0.905233D+00     -0.301953D+01
   y          0.216944D+01      0.551416D+01      0.183933D+02
   z          0.000000D+00      0.000000D+00      0.000000D+00

 Dipole polarizability, Alpha (input orientation).
 (esu units = cm**3 , SI units = C**2 m**2 J**-1)
 Alpha(0;0):
               (au)            (10**-24 esu)      (10**-40 SI)
   iso        0.337477D+03      0.500089D+02      0.556424D+02
   aniso      0.111254D+03      0.164862D+02      0.183434D+02
   xx         0.382436D+03      0.566711D+02      0.630551D+02
   yx        -0.470637D+01     -0.697412D+00     -0.775975D+00
   yy         0.365867D+03      0.542159D+02      0.603234D+02
   zx         0.000000D+00      0.000000D+00      0.000000D+00
   zy         0.000000D+00      0.000000D+00      0.000000D+00
   zz         0.264128D+03      0.391397D+02      0.435488D+02

 ----------------------------------------------------------------------

 Dipole orientation:
     7         -0.21460811         -0.03523120         -3.14143597
     6          2.19949983          0.36108146         -2.24061507
     7          2.31884214          0.38067332          0.36311932
     6          0.33693444          0.05531293          2.07988271
     6         -2.14507181         -0.35214627          0.92347447
     6         -2.28897123         -0.37576956         -1.60565005
     8          4.01112361          0.65848715         -3.59842117
     8          0.73516798          0.12068904          4.33243481
     1         -0.38107822         -0.06255980         -5.03856183
     1          4.05409291          0.66554121          1.11395199
     6         -4.35971633         -0.71571396          2.64082085
     1         -4.05770357         -0.66613396         -2.59218615
     1         -6.09288172         -1.00023951          1.56227222
     1         -4.07100218         -2.34612840          3.87158529
     1         -4.60742218          0.92143262          3.87158529

 Electric dipole moment (dipole orientation):
 (Debye = 10**-18 statcoulomb cm , SI units = C m)
                  (au)            (Debye)         (10**-30 SI)
   Tot        0.219848D+01      0.558797D+01      0.186395D+02
   x          0.000000D+00      0.000000D+00      0.000000D+00
   y          0.000000D+00      0.000000D+00      0.000000D+00
   z          0.219848D+01      0.558797D+01      0.186395D+02

 Dipole polarizability, Alpha (dipole orientation).
 (esu units = cm**3 , SI units = C**2 m**2 J**-1)
 Alpha(0;0):
               (au)            (10**-24 esu)      (10**-40 SI)
   iso        0.337477D+03      0.500089D+02      0.556424D+02
   aniso      0.111254D+03      0.164862D+02      0.183434D+02
   xx         0.377442D+03      0.559312D+02      0.622318D+02
   yx         0.186023D+02      0.275658D+01      0.306710D+01
   yy         0.267182D+03      0.395922D+02      0.440523D+02
   zx        -0.701402D+01     -0.103937D+01     -0.115646D+01
   zy        -0.115146D+01     -0.170629D+00     -0.189850D+00
   zz         0.367807D+03      0.545033D+02      0.606431D+02

 ----------------------------------------------------------------------
 1\1\GINC-BAKU1\Freq\RCAM-B3LYP TD-FC\6-311+G(d,p)\C5H6N2O2\ROOT\25-Nov
 -2022\0\\#p freq td=(nstates=10,root=3) cam-b3lyp/6-311+G(d,p) symm=lo
 ose\\Thymine TDDFT excited state 3\\0,1\N,0.155734,-1.659062,0.\C,1.35
 6002,-0.978945,0.\N,1.19595,0.39106,0.\C,0.,1.115359,0.\C,-1.214288,0.
 295879,0.\C,-1.073627,-1.037299,0.\O,2.43107,-1.530594,0.\O,0.017636,2
 .326209,0.\H,0.230273,-2.664179,0.\H,2.04984,0.933881,0.\C,-2.533447,1
 .000264,0.\H,-1.925029,-1.70611,0.\H,-3.35814,0.286495,0.\H,-2.628104,
 1.644735,0.876132\H,-2.628104,1.644735,-0.876132\\Version=ES64L-G16Rev
 B.01\State=1-A'\HF=-454.0747115\RMSD=7.707e-09\RMSF=1.936e-02\ZeroPoin
 t=0.1112923\Thermal=0.1181586\Dipole=-0.3561461,2.1694367,0.\DipoleDer
 iv=-0.4638564,-0.0500513,0.,-1.1036277,1.6323869,0.,0.,0.,0.4812436,1.
 2768594,-0.3741673,0.,0.1130519,0.3771158,0.,0.,0.,0.0564904,-0.230134
 2,0.6738096,0.,-0.0171749,-0.4633808,0.,0.,0.,-0.0476161,0.319133,-0.1
 398775,0.,0.2278395,1.4029811,0.0000001,0.,0.,-0.1186397,0.2751051,-0.
 2779062,0.,-0.1815044,-0.478054,0.0000001,0.,0.,0.1852789,0.4880588,0.
 4955788,0.,0.4601448,0.2375777,-0.0000003,0.,0.,0.5669365,-0.8016096,0
 .2956939,0.,-0.0249264,-0.1746058,0.,0.,0.,-0.0980885,-0.1832479,-0.04
 77285,0.,-0.0566797,-0.9700094,0.,0.,0.,-0.2201998,-0.309372,-0.453038
 7,0.,1.1704731,-1.3386278,0.,0.,0.,-0.7741524,0.1291278,-0.0220932,0.,
 0.0149477,0.1378225,0.,0.,0.,0.2451166,-0.0812551,0.1027509,0.,0.14667
 41,-0.0108945,0.,0.,0.,-0.0128846,-0.6488983,-0.118271,0.,-0.5098161,-
 0.7034513,0.,0.,0.,-0.3563661,0.0590756,0.040712,0.,-0.1588491,0.03747
 05,0.,0.,0.,-0.0373294,0.0855069,-0.0627058,0.0173651,-0.0402765,0.156
 8345,0.0305539,0.0371432,-0.1632976,0.0651053,0.0855069,-0.0627058,-0.
 0173651,-0.0402765,0.1568345,-0.0305539,-0.0371432,0.1632976,0.0651053
 \Polar=382.4355654,-4.7063681,365.8672883,0.,-0.0000001,264.1277826\PG
 =CS [SG(C5H4N2O2),X(H2)]\NImag=2\\0.62882419,0.00497319,0.77212359,0.,
 0.,0.08399731,-0.15517665,-0.05329492,0.,0.83105178,-0.08382573,-0.177
 86024,0.,-0.14086876,0.69147057,0.,0.,-0.05074975,0.,0.,0.16342364,0.0
 0116878,-0.05008587,0.,-0.13589266,-0.03422283,0.,0.78772287,-0.028670
 72,-0.05747997,0.,-0.00483661,-0.25666830,0.,0.08168638,0.74801241,0.,
 0.,0.00189667,0.,0.,-0.04009720,0.,0.,0.05352559,-0.02593411,-0.005817
 08,0.,0.01166372,0.08631783,0.,-0.24113925,-0.00419426,0.,0.57479594,-
 0.00588375,0.01849292,0.,0.02834185,-0.03773643,0.,0.02649811,-0.12792
 530,0.,0.04036602,0.93366871,0.,0.,0.00094237,0.,0.,-0.00527472,0.,0.,
 -0.05205744,0.,0.,0.17458574,-0.00867327,0.04381650,0.,0.00917569,-0.0
 1411440,0.,-0.04258218,-0.00725593,0.,-0.20165660,-0.03490848,0.,0.563
 13942,0.05993245,-0.02311099,0.,-0.02378758,0.00791979,0.,0.01880027,0
 .01619725,0.,-0.05796805,-0.10184373,0.,-0.03434502,0.80319291,0.,0.,0
 .00888110,0.,0.,-0.00942784,0.,0.,0.00627467,0.,0.,-0.06982023,0.,0.,0
 .14386775,-0.23139079,0.02200906,0.,-0.05833723,0.01284170,0.,-0.00389
 252,0.00915953,0.,0.03484846,-0.02713787,0.,-0.11110103,-0.00903265,0.
 ,0.58539481,0.00931470,-0.19380436,0.,0.03193648,0.01766273,0.,-0.0057
 5117,-0.00464955,0.,-0.01101992,-0.04200015,0.,0.01749051,-0.47320123,
 0.,0.07415948,0.84826706,0.,0.,-0.07205286,0.,0.,-0.00547707,0.,0.,0.0
 0865575,0.,0.,0.00534801,0.,0.,-0.05593489,0.,0.,0.14673097,-0.1197433
 1,0.00407472,0.,-0.52126903,0.23034969,0.,-0.02225149,0.05616828,0.,0.
 01670538,-0.00478529,0.,-0.00619555,0.00841972,0.,0.00736636,-0.024871
 25,0.,0.65255211,0.00732769,0.02562487,0.,0.21427840,-0.22114511,0.,0.
 08223393,-0.06137461,0.,-0.02954949,0.00595498,0.,0.00631696,-0.006847
 60,0.,-0.00827090,0.00742904,0.,-0.28614499,0.24888854,0.,0.,0.0154879
 4,0.,0.,-0.07381434,0.,0.,0.01731053,0.,0.,0.00483729,0.,0.,0.00132881
 ,0.,0.,0.00387665,0.,0.,0.03959007,0.00532919,0.00209769,0.,-0.0056574
 1,-0.01920784,0.,0.00233183,0.07582493,0.,-0.10599607,-0.02192952,0.,0
 .00812690,-0.03486452,0.,-0.01224293,-0.00558121,0.,-0.00408244,0.0079
 8502,0.,0.10184101,0.00111985,-0.01370071,0.,0.00705453,0.02571439,0.,
 0.04933300,-0.08735994,0.,-0.02488371,-0.67631869,0.,-0.02652677,-0.06
 415018,0.,-0.01420052,0.00429936,0.,0.00341534,-0.00965426,0.,0.000134
 31,0.81535137,0.,0.,-0.00071655,0.,0.,0.00601714,0.,0.,0.01908011,0.,0
 .,-0.07065307,0.,0.,0.01894388,0.,0.,0.00038898,0.,0.,-0.00127481,0.,0
 .,0.03401465,-0.06233458,0.03143739,0.,0.01032115,-0.03690527,0.,-0.00
 492365,-0.00189341,0.,-0.00205469,0.00103035,0.,-0.00400457,0.00222392
 ,0.,0.00620655,0.03192207,0.,0.00102401,0.00484066,0.,0.00086246,0.000
 32047,0.,0.05317046,0.02041279,-0.36461179,0.,-0.02478022,-0.02124626,
 0.,0.00364860,0.01148045,0.,0.00019431,-0.00588357,0.,0.00226651,-0.01
 615436,0.,0.03018261,0.01207392,0.,0.00915469,0.00336546,0.,0.00051775
 ,0.00686133,0.,-0.03052031,0.37576844,0.,0.,-0.00577507,0.,0.,0.008373
 13,0.,0.,-0.00038386,0.,0.,-0.00475567,0.,0.,0.01039794,0.,0.,0.003043
 68,0.,0.,-0.00284321,0.,0.,0.00076291,0.,0.,-0.00144943,0.00079589,0.0
 0426284,0.,0.01427855,-0.00278029,0.,-0.34121757,-0.17010809,0.,-0.021
 78362,-0.01571971,0.,-0.00383552,0.00291337,0.,-0.00006461,0.00094426,
 0.,-0.00319633,0.00141100,0.,0.00484094,-0.00187638,0.,0.00066679,0.00
 047583,0.,0.34987708,-0.00001440,-0.00843797,0.,-0.03150331,-0.0144044
 4,0.,-0.16824989,-0.18085252,0.,0.01605223,0.02161825,0.,0.00302974,-0
 .00284143,0.,0.00083159,-0.00038919,0.,0.00108853,0.00483052,0.,-0.003
 12107,-0.00266597,0.,-0.00083257,0.00219141,0.,0.18185692,0.18022314,0
 .,0.,0.00350960,0.,0.,-0.00075357,0.,0.,-0.01515551,0.,0.,0.00143790,0
 .,0.,0.00365195,0.,0.,0.00015901,0.,0.,-0.00329052,0.,0.,-0.00392383,0
 .,0.,0.00058905,0.,0.,0.01434237,0.00332309,-0.00266937,0.,-0.00113308
 ,0.00024605,0.,-0.00154051,-0.00278271,0.,-0.03133004,0.00432558,0.,-0
 .18730917,0.04616554,0.,0.00007279,0.01321744,0.,0.00041313,-0.0001888
 7,0.,0.00075044,0.00517835,0.,0.00043641,-0.00169809,0.,0.00025443,0.0
 0098780,0.,0.51371894,-0.00026554,-0.00882925,0.,0.00032306,-0.0081143
 3,0.,-0.00807891,-0.00078630,0.,-0.01037714,0.01904265,0.,0.03220329,-
 0.10550822,0.,0.03010553,-0.02212616,0.,-0.00051894,0.00249777,0.,-0.0
 0057142,-0.00103837,0.,0.00068968,0.00853485,0.,-0.00113709,0.00100043
 ,0.,0.06103276,0.54302037,0.,0.,0.00847726,0.,0.,-0.00330067,0.,0.,0.0
 0126060,0.,0.,0.00707133,0.,0.,-0.06772722,0.,0.,0.01324007,0.,0.,0.00
 047219,0.,0.,-0.00195804,0.,0.,-0.00057132,0.,0.,-0.00042989,0.,0.,0.5
 2032827,-0.03422426,-0.00580834,0.,-0.00038822,0.00041240,0.,0.0022911
 6,-0.00096066,0.,-0.00444785,0.00356985,0.,0.01180321,0.00554148,0.,-0
 .21308175,-0.13044568,0.,-0.00112672,0.00007007,0.,0.00270797,0.002256
 91,0.,0.00098642,-0.00609457,0.,-0.00034676,-0.00031026,0.,0.00053481,
 0.00158444,0.,0.23577379,0.01453905,0.03290114,0.,-0.00283573,-0.00792
 196,0.,0.00209879,0.00171575,0.,0.00019915,-0.00144826,0.,-0.01810619,
 -0.01742857,0.,-0.12375142,-0.15723377,0.,0.00340425,0.00130804,0.,0.0
 0038028,0.00120656,0.,-0.00285008,-0.01135311,0.,-0.00033986,0.0000783
 5,0.,-0.00292305,0.00305033,0.,0.12994073,0.15482938,0.,0.,0.00763451,
 0.,0.,0.00893864,0.,0.,-0.00055542,0.,0.,0.00540533,0.,0.,0.00952754,0
 .,0.,-0.04382783,0.,0.,-0.00121725,0.,0.,-0.00114833,0.,0.,-0.00710941
 ,0.,0.,-0.00014886,0.,0.,-0.00345843,0.,0.,0.02569167,0.00046620,0.000
 36589,0.,-0.00015621,-0.00088587,0.,-0.00156147,-0.00080847,0.,-0.0020
 2082,0.00429890,0.,-0.02365670,-0.01900921,0.,0.00058904,-0.00217073,0
 .,0.00012696,0.00022374,0.,0.00047387,-0.00006414,0.,0.00025328,-0.000
 47524,0.,-0.00024075,0.00029478,0.,-0.20315772,-0.13135814,0.,0.000199
 15,0.00115928,0.,0.22165035,-0.00042876,0.00058163,0.,-0.00037366,-0.0
 0005522,0.,0.00117585,0.00106796,0.,0.00335508,-0.00340002,0.,0.015369
 89,0.01318295,0.,0.00147913,0.00175975,0.,0.00016877,-0.00014203,0.,-0
 .00094967,0.00074270,0.,0.00003288,-0.00053058,0.,-0.00004165,-0.00035
 365,0.,-0.13639640,-0.16950807,0.,-0.00066040,-0.00061279,0.,0.1427991
 8,0.17960299,0.,0.,-0.00020556,0.,0.,-0.00039861,0.,0.,0.00047831,0.,0
 .,0.00282741,0.,0.,-0.00272864,0.,0.,0.00018854,0.,0.,0.00013716,0.,0.
 ,0.00004092,0.,0.,-0.00033576,0.,0.,-0.00013429,0.,0.,-0.04814337,0.,0
 .,-0.00006842,0.,0.,0.04606207,-0.00121518,0.00231915,-0.00150326,0.00
 075980,0.00132166,0.00101725,0.00074333,-0.00066413,-0.00036081,-0.000
 82523,0.00096698,-0.00222049,-0.00161532,0.01750513,0.02381472,-0.0021
 8358,0.00042751,-0.00103553,-0.00016154,-0.00026661,-0.00017092,0.0003
 5712,-0.00063062,-0.00007133,-0.00030502,-0.00164233,0.00014204,-0.000
 01426,-0.00005504,0.00021852,-0.04751676,0.01318420,0.02045191,-0.0003
 4048,-0.00045760,0.00041481,0.00351741,-0.01276512,-0.01974309,0.04796
 477,0.00073459,-0.00094444,0.00033154,0.00017324,0.00119239,0.00051040
 ,0.00045687,-0.00068867,-0.00000079,-0.00133750,-0.00111067,0.00000107
 ,0.00738170,-0.01470329,-0.01032591,0.00081236,0.00095627,-0.00009765,
 0.00003824,-0.00036781,-0.00013973,-0.00035736,0.00035621,0.00005532,0
 .00025210,-0.00024809,0.00009309,0.00006942,0.00000153,0.00003186,0.00
 775248,-0.13061785,-0.13400221,0.00045201,0.00045445,-0.00022811,0.002
 81502,-0.01116781,-0.01551618,-0.01730220,0.14667502,-0.00019103,0.002
 10012,-0.00066348,-0.00039420,-0.00047315,0.00127061,-0.00015367,0.000
 80972,-0.00011640,0.00049830,-0.00213142,0.00005288,0.00203687,0.00104
 059,0.00138259,0.00004214,0.00188706,-0.00216951,-0.00003475,0.0002226
 6,-0.00030026,-0.00107905,0.00110476,0.00021303,-0.00020683,-0.0020738
 7,0.00002851,0.00006559,0.00002583,0.00007330,0.01780100,-0.13161425,-
 0.21263039,-0.00024914,-0.00079766,0.00016813,-0.00094045,0.00204518,0
 .00114012,-0.01907430,0.14357086,0.23346286,-0.00121518,0.00231915,0.0
 0150326,0.00075980,0.00132166,-0.00101725,0.00074333,-0.00066413,0.000
 36081,-0.00082523,0.00096698,0.00222049,-0.00161532,0.01750513,-0.0238
 1472,-0.00218358,0.00042752,0.00103553,-0.00016154,-0.00026661,0.00017
 092,0.00035712,-0.00063062,0.00007133,-0.00030502,-0.00164233,-0.00014
 204,-0.00001426,-0.00005504,-0.00021852,-0.04751676,0.01318420,-0.0204
 5191,-0.00034048,-0.00045760,-0.00041481,0.00351741,-0.01276512,0.0197
 4309,0.00083493,-0.00194099,0.00187951,0.04796477,0.00073459,-0.000944
 44,-0.00033154,0.00017324,0.00119239,-0.00051040,0.00045688,-0.0006886
 7,0.00000079,-0.00133750,-0.00111068,-0.00000107,0.00738170,-0.0147032
 9,0.01032591,0.00081236,0.00095628,0.00009765,0.00003824,-0.00036781,0
 .00013973,-0.00035736,0.00035621,-0.00005532,0.00025210,-0.00024809,-0
 .00009309,0.00006942,0.00000153,-0.00003186,0.00775248,-0.13061785,0.1
 3400221,0.00045201,0.00045445,0.00022811,0.00281502,-0.01116781,0.0155
 1618,-0.00194099,0.01021278,-0.01571644,-0.01730220,0.14667502,0.00019
 103,-0.00210012,-0.00066348,0.00039420,0.00047315,0.00127061,0.0001536
 7,-0.00080972,-0.00011640,-0.00049830,0.00213142,0.00005288,-0.0020368
 7,-0.00104059,0.00138259,-0.00004214,-0.00188706,-0.00216951,0.0000347
 5,-0.00022266,-0.00030026,0.00107905,-0.00110476,0.00021303,0.00020683
 ,0.00207387,0.00002851,-0.00006559,-0.00002583,0.00007330,-0.01780100,
 0.13161425,-0.21263039,0.00024914,0.00079766,0.00016813,0.00094045,-0.
 00204518,0.00114012,-0.00187951,0.01571644,-0.02191197,0.01907430,-0.1
 4357086,0.23346286\\0.05169648,-0.04684607,0.,-0.02239137,-0.01098631,
 0.,0.00354648,-0.00283791,0.,-0.02272792,-0.01355550,0.,0.01548829,-0.
 04703150,0.,-0.04579951,0.06505486,0.,0.01628332,-0.00403068,0.,0.0059
 3805,0.00964384,0.,0.00747304,0.03349939,0.,-0.00131159,-0.00141085,0.
 ,-0.00290385,0.01376548,0.,0.00218798,0.00798372,0.,-0.00168509,-0.000
 28253,0.,-0.00289716,-0.00148296,-0.00083544,-0.00289716,-0.00148296,0
 .00083544\\\@


 THEREFORE SHALL EVIL COME UPON THEE...
 THOU SHALT NOT KNOW FROM WHENCE IT RISETH...
 AND MISCHIEF SHALL FALL UPON THEE...
 THOU SHALT NOT BE ABLE TO PUT IT OFF...
 AND DESOLATION SHALL COME UPON THEE SUDDENLY...
 WHICH THOU SHALT NOT KNOW...

                                         ISAIAH 47.11
 Job cpu time:       0 days  1 hours 16 minutes 22.4 seconds.
 Elapsed time:       0 days  0 hours  1 minutes 38.3 seconds.
 File lengths (MBytes):  RWF=    392 Int=      0 D2E=      0 Chk=     22 Scr=      1
 Normal termination of Gaussian 16 at Fri Nov 25 12:02:14 2022.
