 Entering Gaussian System, Link 0=/shared/gaussian/g16.b01/AVX2/g16/g16
 Initial command:
 /shared/gaussian/g16.b01/AVX2/g16/l1.exe "/scratch/marlene/SCRGAU.120130.Thymine6311-es4/Gau-22483.inp" -scrdir="/scratch/marlene/SCRGAU.120130.Thymine6311-es4/"
 Entering Link 1 = /shared/gaussian/g16.b01/AVX2/g16/l1.exe PID=     22484.
  
 Copyright (c) 1988-2017, Gaussian, Inc.  All Rights Reserved.
  
 This is part of the Gaussian(R) 16 program.  It is based on
 the Gaussian(R) 09 system (copyright 2009, Gaussian, Inc.),
 the Gaussian(R) 03 system (copyright 2003, Gaussian, Inc.),
 the Gaussian(R) 98 system (copyright 1998, Gaussian, Inc.),
 the Gaussian(R) 94 system (copyright 1995, Gaussian, Inc.),
 the Gaussian 92(TM) system (copyright 1992, Gaussian, Inc.),
 the Gaussian 90(TM) system (copyright 1990, Gaussian, Inc.),
 the Gaussian 88(TM) system (copyright 1988, Gaussian, Inc.),
 the Gaussian 86(TM) system (copyright 1986, Carnegie Mellon
 University), and the Gaussian 82(TM) system (copyright 1983,
 Carnegie Mellon University). Gaussian is a federally registered
 trademark of Gaussian, Inc.
  
 This software contains proprietary and confidential information,
 including trade secrets, belonging to Gaussian, Inc.
  
 This software is provided under written license and may be
 used, copied, transmitted, or stored only in accord with that
 written license.
  
 The following legend is applicable only to US Government
 contracts under FAR:
  
                    RESTRICTED RIGHTS LEGEND
  
 Use, reproduction and disclosure by the US Government is
 subject to restrictions as set forth in subparagraphs (a)
 and (c) of the Commercial Computer Software - Restricted
 Rights clause in FAR 52.227-19.
  
 Gaussian, Inc.
 340 Quinnipiac St., Bldg. 40, Wallingford CT 06492
  
  
 ---------------------------------------------------------------
 Warning -- This program may not be used in any manner that
 competes with the business of Gaussian, Inc. or will provide
 assistance to any competitor of Gaussian, Inc.  The licensee
 of this program is prohibited from giving any competitor of
 Gaussian, Inc. access to this program.  By using this program,
 the user acknowledges that Gaussian, Inc. is engaged in the
 business of creating and licensing software in the field of
 computational chemistry and represents and warrants to the
 licensee that it is not a competitor of Gaussian, Inc. and that
 it will not use this program in any manner prohibited above.
 ---------------------------------------------------------------
  

 Cite this work as:
 Gaussian 16, Revision B.01,
 M. J. Frisch, G. W. Trucks, H. B. Schlegel, G. E. Scuseria, 
 M. A. Robb, J. R. Cheeseman, G. Scalmani, V. Barone, 
 G. A. Petersson, H. Nakatsuji, X. Li, M. Caricato, A. V. Marenich, 
 J. Bloino, B. G. Janesko, R. Gomperts, B. Mennucci, H. P. Hratchian, 
 J. V. Ortiz, A. F. Izmaylov, J. L. Sonnenberg, D. Williams-Young, 
 F. Ding, F. Lipparini, F. Egidi, J. Goings, B. Peng, A. Petrone, 
 T. Henderson, D. Ranasinghe, V. G. Zakrzewski, J. Gao, N. Rega, 
 G. Zheng, W. Liang, M. Hada, M. Ehara, K. Toyota, R. Fukuda, 
 J. Hasegawa, M. Ishida, T. Nakajima, Y. Honda, O. Kitao, H. Nakai, 
 T. Vreven, K. Throssell, J. A. Montgomery, Jr., J. E. Peralta, 
 F. Ogliaro, M. J. Bearpark, J. J. Heyd, E. N. Brothers, K. N. Kudin, 
 V. N. Staroverov, T. A. Keith, R. Kobayashi, J. Normand, 
 K. Raghavachari, A. P. Rendell, J. C. Burant, S. S. Iyengar, 
 J. Tomasi, M. Cossi, J. M. Millam, M. Klene, C. Adamo, R. Cammi, 
 J. W. Ochterski, R. L. Martin, K. Morokuma, O. Farkas, 
 J. B. Foresman, and D. J. Fox, Gaussian, Inc., Wallingford CT, 2016.
 
 ******************************************
 Gaussian 16:  ES64L-G16RevB.01 20-Dec-2017
                25-Nov-2022 
 ******************************************
 %nprocshared=50
 Will use up to   50 processors via shared memory.
 %mem=10GB
 %chk=Thymine6311-es4.chk
 ----------------------------------------------------------------
 #p freq td=(nstates=10,root=4) cam-b3lyp/6-311+G(d,p) symm=loose
 ----------------------------------------------------------------
 1/10=4,30=1,38=1/1,3;
 2/12=2,17=4,18=3,40=1/2;
 3/5=4,6=6,7=111,11=9,25=1,30=1,71=2,74=-40,140=1/1,2,3,8;
 4//1;
 5/5=2,38=5,98=1/2;
 8/6=1,10=2,107=4,108=10/1;
 9/8=4,15=3,41=10,42=1,70=2/14;
 10/5=2004,20=4,28=4/2;
 11/6=1,8=1,12=-4,16=1,42=3/1,2,10;
 10/6=3,21=1,28=4/2,14;
 6/7=2,8=2,9=2,10=2/1;
 7/8=1,10=1,12=6,13=8,14=4,25=1,44=2/1,2,3,16;
 1/10=4,30=1/3;
 99//99;
 Leave Link    1 at Fri Nov 25 12:01:30 2022, MaxMem=  1342177280 cpu:               1.7 elap:               0.0
 (Enter /shared/gaussian/g16.b01/AVX2/g16/l101.exe)
 -----------------------------
 Thymine TDDFT excited state 4
 -----------------------------
 Symbolic Z-matrix:
 Charge =  0 Multiplicity = 1
 N                     0.15573  -1.65906   0. 
 C                     1.356    -0.97895   0. 
 N                     1.19595   0.39106   0. 
 C                     0.        1.11536   0. 
 C                    -1.21429   0.29588   0. 
 C                    -1.07363  -1.0373    0. 
 O                     2.43107  -1.53059   0. 
 O                     0.01764   2.32621   0. 
 H                     0.23027  -2.66418   0. 
 H                     2.04984   0.93388   0. 
 C                    -2.53345   1.00026   0. 
 H                    -1.92503  -1.70611   0. 
 H                    -3.35814   0.2865    0. 
 H                    -2.6281    1.64474   0.87613 
 H                    -2.6281    1.64474  -0.87613 
 
 ITRead=  0  0  0  0  0  0  0  0  0  0  0  0  0  0  0
 MicOpt= -1 -1 -1 -1 -1 -1 -1 -1 -1 -1 -1 -1 -1 -1 -1
 NAtoms=     15 NQM=       15 NQMF=       0 NMMI=      0 NMMIF=      0
                NMic=       0 NMicF=      0.
                    Isotopes and Nuclear Properties:
 (Nuclear quadrupole moments (NQMom) in fm**2, nuclear magnetic moments (NMagM)
  in nuclear magnetons)

  Atom         1           2           3           4           5           6           7           8           9          10
 IAtWgt=          14          12          14          12          12          12          16          16           1           1
 AtmWgt=  14.0030740  12.0000000  14.0030740  12.0000000  12.0000000  12.0000000  15.9949146  15.9949146   1.0078250   1.0078250
 NucSpn=           2           0           2           0           0           0           0           0           1           1
 AtZEff=  -0.0000000  -0.0000000  -0.0000000  -0.0000000  -0.0000000  -0.0000000  -0.0000000  -0.0000000  -0.0000000  -0.0000000
 NQMom=    2.0440000   0.0000000   2.0440000   0.0000000   0.0000000   0.0000000   0.0000000   0.0000000   0.0000000   0.0000000
 NMagM=    0.4037610   0.0000000   0.4037610   0.0000000   0.0000000   0.0000000   0.0000000   0.0000000   2.7928460   2.7928460
 AtZNuc=   7.0000000   6.0000000   7.0000000   6.0000000   6.0000000   6.0000000   8.0000000   8.0000000   1.0000000   1.0000000

  Atom        11          12          13          14          15
 IAtWgt=          12           1           1           1           1
 AtmWgt=  12.0000000   1.0078250   1.0078250   1.0078250   1.0078250
 NucSpn=           0           1           1           1           1
 AtZEff=  -0.0000000  -0.0000000  -0.0000000  -0.0000000  -0.0000000
 NQMom=    0.0000000   0.0000000   0.0000000   0.0000000   0.0000000
 NMagM=    0.0000000   2.7928460   2.7928460   2.7928460   2.7928460
 AtZNuc=   6.0000000   1.0000000   1.0000000   1.0000000   1.0000000
 Leave Link  101 at Fri Nov 25 12:01:30 2022, MaxMem=  1342177280 cpu:               6.0 elap:               0.1
 (Enter /shared/gaussian/g16.b01/AVX2/g16/l103.exe)

 GradGradGradGradGradGradGradGradGradGradGradGradGradGradGradGradGradGrad
 Berny optimization.
 Initialization pass.
 Trust Radius=3.00D-01 FncErr=1.00D-07 GrdErr=1.00D-07 EigMax=2.50D+02 EigMin=1.00D-04
 Number of steps in this run=      2 maximum allowed number of steps=      2.
 GradGradGradGradGradGradGradGradGradGradGradGradGradGradGradGradGradGrad

 Leave Link  103 at Fri Nov 25 12:01:30 2022, MaxMem=  1342177280 cpu:               1.1 elap:               0.0
 (Enter /shared/gaussian/g16.b01/AVX2/g16/l202.exe)
                          Input orientation:                          
 ---------------------------------------------------------------------
 Center     Atomic      Atomic             Coordinates (Angstroms)
 Number     Number       Type             X           Y           Z
 ---------------------------------------------------------------------
      1          7           0        0.155734   -1.659062    0.000000
      2          6           0        1.356002   -0.978945    0.000000
      3          7           0        1.195950    0.391060    0.000000
      4          6           0        0.000000    1.115359    0.000000
      5          6           0       -1.214288    0.295879    0.000000
      6          6           0       -1.073627   -1.037299    0.000000
      7          8           0        2.431070   -1.530594    0.000000
      8          8           0        0.017636    2.326209    0.000000
      9          1           0        0.230273   -2.664179    0.000000
     10          1           0        2.049840    0.933881    0.000000
     11          6           0       -2.533447    1.000264    0.000000
     12          1           0       -1.925029   -1.706110    0.000000
     13          1           0       -3.358140    0.286495    0.000000
     14          1           0       -2.628104    1.644735    0.876132
     15          1           0       -2.628104    1.644735   -0.876132
 ---------------------------------------------------------------------
                    Distance matrix (angstroms):
                    1          2          3          4          5
     1  N    0.000000
     2  C    1.379566   0.000000
     3  N    2.298924   1.379322   0.000000
     4  C    2.778788   2.494965   1.398179   0.000000
     5  C    2.387206   2.869071   2.412117   1.464938   0.000000
     6  C    1.377649   2.430330   2.681639   2.405538   1.340578
     7  O    2.278960   1.208341   2.284355   3.593211   4.077332
     8  O    3.987663   3.565847   2.265662   1.210978   2.374842
     9  H    1.007877   2.026642   3.204219   3.786546   3.293736
    10  H    3.211073   2.034776   1.011822   2.057858   3.325895
    11  C    3.782024   4.364067   3.778827   2.536060   1.495439
    12  H    2.081295   3.360645   3.760137   3.415615   2.124409
    13  H    4.016529   4.881032   4.555290   3.458919   2.143873
    14  H    4.408224   4.850196   4.118580   2.820421   2.141470
    15  H    4.408224   4.850196   4.118580   2.820421   2.141470
                    6          7          8          9         10
     6  C    0.000000
     7  O    3.539243   0.000000
     8  O    3.536105   4.549681   0.000000
     9  H    2.084921   2.475585   4.994916   0.000000
    10  H    3.693453   2.493787   2.463418   4.031980   0.000000
    11  C    2.506539   5.572403   2.875092   4.589803   4.583768
    12  H    1.082679   4.359634   4.475885   2.358649   4.771702
    13  H    2.640347   6.067682   3.944147   4.645771   5.446591
    14  H    3.221384   6.037016   2.869138   5.244489   4.812077
    15  H    3.221384   6.037016   2.869138   5.244489   4.812077
                   11         12         13         14         15
    11  C    0.000000
    12  H    2.773920   0.000000
    13  H    1.090681   2.454441   0.000000
    14  H    1.091746   3.534131   1.773521   0.000000
    15  H    1.091746   3.534131   1.773521   1.752264   0.000000
 Stoichiometry    C5H6N2O2
 Framework group  CS[SG(C5H4N2O2),X(H2)]
 Deg. of freedom    26
 Full point group                 CS      NOp   2
 Largest Abelian subgroup         CS      NOp   2
 Largest concise Abelian subgroup CS      NOp   2
                         Standard orientation:                         
 ---------------------------------------------------------------------
 Center     Atomic      Atomic             Coordinates (Angstroms)
 Number     Number       Type             X           Y           Z
 ---------------------------------------------------------------------
      1          7           0        0.155734   -1.659062    0.000000
      2          6           0        1.356002   -0.978945    0.000000
      3          7           0        1.195950    0.391060    0.000000
      4          6           0       -0.000000    1.115359    0.000000
      5          6           0       -1.214288    0.295879    0.000000
      6          6           0       -1.073627   -1.037299    0.000000
      7          8           0        2.431070   -1.530595    0.000000
      8          8           0        0.017636    2.326209    0.000000
      9          1           0        0.230272   -2.664179    0.000000
     10          1           0        2.049840    0.933880    0.000000
     11          6           0       -2.533447    1.000264    0.000000
     12          1           0       -1.925029   -1.706110    0.000000
     13          1           0       -3.358140    0.286495    0.000000
     14          1           0       -2.628104    1.644735    0.876132
     15          1           0       -2.628104    1.644735   -0.876132
 ---------------------------------------------------------------------
 Rotational constants (GHZ):           3.2246800           1.4105953           0.9872586
 Leave Link  202 at Fri Nov 25 12:01:30 2022, MaxMem=  1342177280 cpu:               0.4 elap:               0.0
 (Enter /shared/gaussian/g16.b01/AVX2/g16/l301.exe)
 Standard basis: 6-311+G(d,p) (5D, 7F)
 Ernie: Thresh=  0.10000D-02 Tol=  0.10000D-05 Strict=F.
 There are   179 symmetry adapted cartesian basis functions of A'  symmetry.
 There are    64 symmetry adapted cartesian basis functions of A"  symmetry.
 There are   170 symmetry adapted basis functions of A'  symmetry.
 There are    64 symmetry adapted basis functions of A"  symmetry.
   234 basis functions,   372 primitive gaussians,   243 cartesian basis functions
    33 alpha electrons       33 beta electrons
       nuclear repulsion energy       440.6332842825 Hartrees.
 IExCor=20419 DFT=T Ex+Corr=CAM-B3LYP ExCW=0 ScaHFX=  1.000000
 ScaDFX=  1.000000  1.000000  1.000000  0.810000 ScalE2=  1.000000  1.000000
 IRadAn=      5 IRanWt=     -1 IRanGd=            0 ICorTp=0 IEmpDi=  4
 HFx  wShort=  0.000000 wLong=  0.330000 cFull=  0.190000 cShort=  0.000000 cLong=  0.460000
 DFx  wShort=  0.000000 wLong=  0.330000 cFull=  0.190000 cShort=  0.000000 cLong=  0.460000
 NAtoms=   15 NActive=   15 NUniq=   14 SFac= 1.15D+00 NAtFMM=   60 NAOKFM=F Big=F
 Integral buffers will be    131072 words long.
 Raffenetti 1 integral format.
 Two-electron integral symmetry is turned on.
 Leave Link  301 at Fri Nov 25 12:01:30 2022, MaxMem=  1342177280 cpu:               2.5 elap:               0.1
 (Enter /shared/gaussian/g16.b01/AVX2/g16/l302.exe)
 NPDir=0 NMtPBC=     1 NCelOv=     1 NCel=       1 NClECP=     1 NCelD=      1
         NCelK=      1 NCelE2=     1 NClLst=     1 CellRange=     0.0.
 One-electron integrals computed using PRISM.
 One-electron integral symmetry used in STVInt
 NBasis=   234 RedAO= T EigKep=  8.80D-06  NBF=   170    64
 NBsUse=   234 1.00D-06 EigRej= -1.00D+00 NBFU=   170    64
 Precomputing XC quadrature grid using
 IXCGrd= 4 IRadAn=           5 IRanWt=          -1 IRanGd=           0 AccXCQ= 0.00D+00.
 Generated NRdTot=       0 NPtTot=           0 NUsed=           0 NTot=          32
 NSgBfM=   243   243   243   243   243 MxSgAt=    15 MxSgA2=    15.
 Leave Link  302 at Fri Nov 25 12:01:30 2022, MaxMem=  1342177280 cpu:              11.1 elap:               0.3
 (Enter /shared/gaussian/g16.b01/AVX2/g16/l303.exe)
 DipDrv:  MaxL=1.
 Leave Link  303 at Fri Nov 25 12:01:30 2022, MaxMem=  1342177280 cpu:               1.8 elap:               0.1
 (Enter /shared/gaussian/g16.b01/AVX2/g16/l308.exe)
 Leave Link  308 at Fri Nov 25 12:01:30 2022, MaxMem=  1342177280 cpu:               1.9 elap:               0.1
 (Enter /shared/gaussian/g16.b01/AVX2/g16/l401.exe)
 ExpMin= 4.38D-02 ExpMax= 8.59D+03 ExpMxC= 1.30D+03 IAcc=3 IRadAn=         5 AccDes= 0.00D+00
 Harris functional with IExCor=20419 and IRadAn=       5 diagonalized for initial guess.
 HarFok:  IExCor=20419 AccDes= 0.00D+00 IRadAn=         5 IDoV= 1 UseB2=F ITyADJ=14
 ICtDFT=  3500011 ScaDFX=  1.000000  1.000000  1.000000  1.000000
 FoFCou: FMM=F IPFlag=           0 FMFlag=      100000 FMFlg1=           0
         NFxFlg=           0 DoJE=T BraDBF=F KetDBF=T FulRan=T
         wScrn=  0.000000 ICntrl=       500 IOpCl=  0 I1Cent=   200000004 NGrid=           0
         NMat0=    1 NMatS0=      1 NMatT0=    0 NMatD0=    1 NMtDS0=    0 NMtDT0=    0
 Petite list used in FoFCou.
 Harris En= -437.692961591682    
 JPrj=0 DoOrth=F DoCkMO=F.
 Initial guess orbital symmetries:
       Occupied  (A') (A') (A') (A') (A') (A') (A') (A') (A') (A')
                 (A') (A') (A') (A') (A') (A') (A') (A') (A') (A')
                 (A") (A') (A') (A') (A") (A') (A') (A") (A") (A')
                 (A") (A') (A")
       Virtual   (A') (A") (A') (A') (A") (A') (A') (A') (A") (A")
                 (A') (A") (A') (A') (A") (A') (A') (A') (A") (A")
                 (A') (A') (A") (A') (A') (A') (A') (A") (A') (A')
                 (A") (A') (A') (A") (A') (A') (A') (A') (A') (A')
                 (A") (A') (A') (A') (A') (A') (A') (A') (A') (A')
                 (A") (A') (A') (A') (A') (A') (A') (A") (A") (A')
                 (A") (A') (A") (A') (A") (A') (A') (A') (A') (A')
                 (A') (A') (A') (A') (A") (A') (A') (A") (A') (A')
                 (A") (A') (A') (A") (A') (A") (A') (A") (A') (A")
                 (A') (A') (A') (A') (A') (A") (A") (A") (A') (A")
                 (A') (A') (A") (A') (A') (A") (A') (A') (A") (A')
                 (A') (A") (A") (A') (A') (A') (A") (A') (A') (A')
                 (A') (A') (A") (A') (A") (A') (A') (A') (A') (A')
                 (A') (A") (A") (A') (A") (A') (A") (A') (A") (A')
                 (A") (A') (A") (A') (A') (A') (A') (A") (A') (A")
                 (A') (A") (A") (A') (A') (A') (A") (A') (A') (A")
                 (A') (A') (A') (A') (A") (A") (A') (A') (A') (A')
                 (A') (A') (A') (A') (A") (A') (A") (A") (A') (A')
                 (A') (A') (A') (A') (A') (A") (A") (A') (A') (A')
                 (A') (A') (A') (A') (A') (A') (A') (A') (A') (A')
                 (A')
 The electronic state of the initial guess is 1-A'.
 Leave Link  401 at Fri Nov 25 12:01:31 2022, MaxMem=  1342177280 cpu:              14.7 elap:               0.4
 (Enter /shared/gaussian/g16.b01/AVX2/g16/l502.exe)
 Integral symmetry usage will be decided dynamically.
 Closed shell SCF:
 Using DIIS extrapolation, IDIIS=  1040.
 NGot=  1342177280 LenX=  1342044072 LenY=  1341984582
 Requested convergence on RMS density matrix=1.00D-08 within 128 cycles.
 Requested convergence on MAX density matrix=1.00D-06.
 Requested convergence on             energy=1.00D-06.
 No special actions if energy rises.
 Fock matrices will be formed incrementally for  20 cycles.

 Cycle   1  Pass 1  IDiag  1:
 FoFJK:  IHMeth= 1 ICntrl=       0 DoSepK=T KAlg= 0 I1Cent=           0 FoldK=F
 IRaf=         1 NMat=       1 IRICut=       1 DoRegI=T DoRafI=F ISym2E= 1 IDoP0=0 IntGTp=1.
 FoFCou: FMM=F IPFlag=           0 FMFlag=      100000 FMFlg1=           0
         NFxFlg=           0 DoJE=T BraDBF=F KetDBF=F FulRan=T
         wScrn=  0.000000 ICntrl=       500 IOpCl=  0 I1Cent=           0 NGrid=           0
         NMat0=    1 NMatS0=      1 NMatT0=    0 NMatD0=    1 NMtDS0=    0 NMtDT0=    0
 Petite list used in FoFCou.
 E= -453.932422397202    
 DIIS: error= 5.55D-02 at cycle   1 NSaved=   1.
 NSaved= 1 IEnMin= 1 EnMin= -453.932422397202     IErMin= 1 ErrMin= 5.55D-02
 ErrMax= 5.55D-02  0.00D+00 EMaxC= 1.00D-01 BMatC= 7.60D-01 BMatP= 7.60D-01
 IDIUse=3 WtCom= 4.45D-01 WtEn= 5.55D-01
 Coeff-Com:  0.100D+01
 Coeff-En:   0.100D+01
 Coeff:      0.100D+01
 Gap=     0.306 Goal=   None    Shift=    0.000
 GapD=    0.306 DampG=1.000 DampE=0.500 DampFc=0.5000 IDamp=-1.
 Damping current iteration by 5.00D-01
 RMSDP=9.25D-03 MaxDP=7.00D-01              OVMax= 1.53D-01

 Cycle   2  Pass 1  IDiag  1:
 RMSU=  4.58D-03    CP:  9.71D-01
 E= -453.996382252570     Delta-E=       -0.063959855368 Rises=F Damp=T
 DIIS: error= 2.61D-02 at cycle   2 NSaved=   2.
 NSaved= 2 IEnMin= 2 EnMin= -453.996382252570     IErMin= 2 ErrMin= 2.61D-02
 ErrMax= 2.61D-02  0.00D+00 EMaxC= 1.00D-01 BMatC= 1.58D-01 BMatP= 7.60D-01
 IDIUse=3 WtCom= 7.39D-01 WtEn= 2.61D-01
 Coeff-Com: -0.524D+00 0.152D+01
 Coeff-En:   0.000D+00 0.100D+01
 Coeff:     -0.387D+00 0.139D+01
 Gap=     0.322 Goal=   None    Shift=    0.000
 RMSDP=4.26D-03 MaxDP=4.13D-01 DE=-6.40D-02 OVMax= 1.43D-01

 Cycle   3  Pass 1  IDiag  1:
 RMSU=  3.23D-03    CP:  8.43D-01  1.04D+00
 E= -454.015240377956     Delta-E=       -0.018858125386 Rises=F Damp=F
 DIIS: error= 2.23D-02 at cycle   3 NSaved=   3.
 NSaved= 3 IEnMin= 3 EnMin= -454.015240377956     IErMin= 3 ErrMin= 2.23D-02
 ErrMax= 2.23D-02  0.00D+00 EMaxC= 1.00D-01 BMatC= 7.67D-02 BMatP= 1.58D-01
 IDIUse=3 WtCom= 7.77D-01 WtEn= 2.23D-01
 Coeff-Com: -0.373D+00 0.839D+00 0.533D+00
 Coeff-En:   0.000D+00 0.325D+00 0.675D+00
 Coeff:     -0.290D+00 0.725D+00 0.565D+00
 Gap=     0.304 Goal=   None    Shift=    0.000
 RMSDP=3.63D-03 MaxDP=3.95D-01 DE=-1.89D-02 OVMax= 8.17D-02

 Cycle   4  Pass 1  IDiag  1:
 RMSU=  1.04D-03    CP:  9.15D-01  1.64D+00  5.42D-01
 E= -454.068339614071     Delta-E=       -0.053099236115 Rises=F Damp=F
 DIIS: error= 7.78D-03 at cycle   4 NSaved=   4.
 NSaved= 4 IEnMin= 4 EnMin= -454.068339614071     IErMin= 4 ErrMin= 7.78D-03
 ErrMax= 7.78D-03  0.00D+00 EMaxC= 1.00D-01 BMatC= 9.17D-03 BMatP= 7.67D-02
 IDIUse=3 WtCom= 9.22D-01 WtEn= 7.78D-02
 Coeff-Com: -0.151D+00 0.326D+00 0.339D+00 0.486D+00
 Coeff-En:   0.000D+00 0.000D+00 0.626D-01 0.937D+00
 Coeff:     -0.139D+00 0.300D+00 0.317D+00 0.521D+00
 Gap=     0.302 Goal=   None    Shift=    0.000
 RMSDP=1.41D-03 MaxDP=1.44D-01 DE=-5.31D-02 OVMax= 2.00D-02

 Cycle   5  Pass 1  IDiag  1:
 RMSU=  3.27D-04    CP:  8.77D-01  1.49D+00  7.37D-01  4.78D-01
 E= -454.074478059640     Delta-E=       -0.006138445569 Rises=F Damp=F
 DIIS: error= 1.40D-03 at cycle   5 NSaved=   5.
 NSaved= 5 IEnMin= 5 EnMin= -454.074478059640     IErMin= 5 ErrMin= 1.40D-03
 ErrMax= 1.40D-03  0.00D+00 EMaxC= 1.00D-01 BMatC= 2.86D-04 BMatP= 9.17D-03
 IDIUse=3 WtCom= 9.86D-01 WtEn= 1.40D-02
 Coeff-Com: -0.350D-01 0.746D-01 0.952D-01 0.244D+00 0.621D+00
 Coeff-En:   0.000D+00 0.000D+00 0.000D+00 0.000D+00 0.100D+01
 Coeff:     -0.345D-01 0.735D-01 0.939D-01 0.241D+00 0.626D+00
 Gap=     0.302 Goal=   None    Shift=    0.000
 RMSDP=2.22D-04 MaxDP=2.30D-02 DE=-6.14D-03 OVMax= 4.74D-03

 Cycle   6  Pass 1  IDiag  1:
 RMSU=  6.78D-05    CP:  8.80D-01  1.52D+00  7.34D-01  5.97D-01  9.21D-01
 E= -454.074686121931     Delta-E=       -0.000208062291 Rises=F Damp=F
 DIIS: error= 3.97D-04 at cycle   6 NSaved=   6.
 NSaved= 6 IEnMin= 6 EnMin= -454.074686121931     IErMin= 6 ErrMin= 3.97D-04
 ErrMax= 3.97D-04  0.00D+00 EMaxC= 1.00D-01 BMatC= 2.06D-05 BMatP= 2.86D-04
 IDIUse=3 WtCom= 9.96D-01 WtEn= 3.97D-03
 Coeff-Com:  0.129D-01-0.283D-01-0.198D-01 0.193D-01 0.302D+00 0.714D+00
 Coeff-En:   0.000D+00 0.000D+00 0.000D+00 0.000D+00 0.000D+00 0.100D+01
 Coeff:      0.129D-01-0.282D-01-0.198D-01 0.193D-01 0.301D+00 0.715D+00
 Gap=     0.302 Goal=   None    Shift=    0.000
 RMSDP=7.61D-05 MaxDP=6.58D-03 DE=-2.08D-04 OVMax= 2.75D-03

 Cycle   7  Pass 1  IDiag  1:
 RMSU=  2.98D-05    CP:  8.78D-01  1.52D+00  7.45D-01  6.08D-01  1.04D+00
                    CP:  9.69D-01
 E= -454.074708365386     Delta-E=       -0.000022243455 Rises=F Damp=F
 DIIS: error= 1.39D-04 at cycle   7 NSaved=   7.
 NSaved= 7 IEnMin= 7 EnMin= -454.074708365386     IErMin= 7 ErrMin= 1.39D-04
 ErrMax= 1.39D-04  0.00D+00 EMaxC= 1.00D-01 BMatC= 2.50D-06 BMatP= 2.06D-05
 IDIUse=3 WtCom= 9.99D-01 WtEn= 1.39D-03
 Coeff-Com:  0.804D-02-0.173D-01-0.154D-01-0.177D-01 0.637D-01 0.300D+00
 Coeff-Com:  0.679D+00
 Coeff-En:   0.000D+00 0.000D+00 0.000D+00 0.000D+00 0.000D+00 0.000D+00
 Coeff-En:   0.100D+01
 Coeff:      0.802D-02-0.173D-01-0.154D-01-0.177D-01 0.637D-01 0.300D+00
 Coeff:      0.679D+00
 Gap=     0.302 Goal=   None    Shift=    0.000
 RMSDP=2.44D-05 MaxDP=1.86D-03 DE=-2.22D-05 OVMax= 6.51D-04

 Cycle   8  Pass 1  IDiag  1:
 RMSU=  1.03D-05    CP:  8.77D-01  1.52D+00  7.49D-01  6.03D-01  1.07D+00
                    CP:  1.01D+00  8.49D-01
 E= -454.074711013684     Delta-E=       -0.000002648298 Rises=F Damp=F
 DIIS: error= 3.82D-05 at cycle   8 NSaved=   8.
 NSaved= 8 IEnMin= 8 EnMin= -454.074711013684     IErMin= 8 ErrMin= 3.82D-05
 ErrMax= 3.82D-05  0.00D+00 EMaxC= 1.00D-01 BMatC= 4.11D-07 BMatP= 2.50D-06
 IDIUse=1 WtCom= 1.00D+00 WtEn= 0.00D+00
 Coeff-Com:  0.177D-02-0.374D-02-0.421D-02-0.147D-01-0.244D-01 0.214D-01
 Coeff-Com:  0.296D+00 0.727D+00
 Coeff:      0.177D-02-0.374D-02-0.421D-02-0.147D-01-0.244D-01 0.214D-01
 Coeff:      0.296D+00 0.727D+00
 Gap=     0.302 Goal=   None    Shift=    0.000
 RMSDP=1.46D-05 MaxDP=1.27D-03 DE=-2.65D-06 OVMax= 3.18D-04

 Cycle   9  Pass 1  IDiag  1:
 RMSU=  5.36D-06    CP:  8.77D-01  1.52D+00  7.51D-01  6.01D-01  1.09D+00
                    CP:  1.03D+00  9.84D-01  1.06D+00
 E= -454.074711477049     Delta-E=       -0.000000463365 Rises=F Damp=F
 DIIS: error= 2.18D-05 at cycle   9 NSaved=   9.
 NSaved= 9 IEnMin= 9 EnMin= -454.074711477049     IErMin= 9 ErrMin= 2.18D-05
 ErrMax= 2.18D-05  0.00D+00 EMaxC= 1.00D-01 BMatC= 4.71D-08 BMatP= 4.11D-07
 IDIUse=1 WtCom= 1.00D+00 WtEn= 0.00D+00
 Coeff-Com: -0.570D-03 0.124D-02 0.878D-03-0.331D-02-0.187D-01-0.334D-01
 Coeff-Com:  0.151D-01 0.296D+00 0.743D+00
 Coeff:     -0.570D-03 0.124D-02 0.878D-03-0.331D-02-0.187D-01-0.334D-01
 Coeff:      0.151D-01 0.296D+00 0.743D+00
 Gap=     0.302 Goal=   None    Shift=    0.000
 RMSDP=5.02D-06 MaxDP=5.22D-04 DE=-4.63D-07 OVMax= 1.94D-04

 Cycle  10  Pass 1  IDiag  1:
 RMSU=  1.84D-06    CP:  8.77D-01  1.52D+00  7.51D-01  5.99D-01  1.09D+00
                    CP:  1.04D+00  9.77D-01  1.15D+00  1.02D+00
 E= -454.074711532451     Delta-E=       -0.000000055402 Rises=F Damp=F
 DIIS: error= 6.47D-06 at cycle  10 NSaved=  10.
 NSaved=10 IEnMin=10 EnMin= -454.074711532451     IErMin=10 ErrMin= 6.47D-06
 ErrMax= 6.47D-06  0.00D+00 EMaxC= 1.00D-01 BMatC= 9.50D-09 BMatP= 4.71D-08
 IDIUse=1 WtCom= 1.00D+00 WtEn= 0.00D+00
 Coeff-Com: -0.481D-03 0.104D-02 0.960D-03 0.331D-03-0.550D-02-0.179D-01
 Coeff-Com: -0.350D-01 0.368D-01 0.379D+00 0.641D+00
 Coeff:     -0.481D-03 0.104D-02 0.960D-03 0.331D-03-0.550D-02-0.179D-01
 Coeff:     -0.350D-01 0.368D-01 0.379D+00 0.641D+00
 Gap=     0.302 Goal=   None    Shift=    0.000
 RMSDP=1.24D-06 MaxDP=8.04D-05 DE=-5.54D-08 OVMax= 3.26D-05

 Cycle  11  Pass 1  IDiag  1:
 RMSU=  5.16D-07    CP:  8.77D-01  1.52D+00  7.51D-01  5.99D-01  1.09D+00
                    CP:  1.03D+00  9.91D-01  1.17D+00  1.15D+00  9.33D-01
 E= -454.074711542013     Delta-E=       -0.000000009562 Rises=F Damp=F
 DIIS: error= 1.92D-06 at cycle  11 NSaved=  11.
 NSaved=11 IEnMin=11 EnMin= -454.074711542013     IErMin=11 ErrMin= 1.92D-06
 ErrMax= 1.92D-06  0.00D+00 EMaxC= 1.00D-01 BMatC= 4.24D-10 BMatP= 9.50D-09
 IDIUse=1 WtCom= 1.00D+00 WtEn= 0.00D+00
 Coeff-Com: -0.748D-04 0.160D-03 0.191D-03 0.402D-03 0.103D-03-0.209D-02
 Coeff-Com: -0.153D-01-0.182D-01 0.700D-01 0.186D+00 0.779D+00
 Coeff:     -0.748D-04 0.160D-03 0.191D-03 0.402D-03 0.103D-03-0.209D-02
 Coeff:     -0.153D-01-0.182D-01 0.700D-01 0.186D+00 0.779D+00
 Gap=     0.302 Goal=   None    Shift=    0.000
 RMSDP=4.14D-07 MaxDP=3.51D-05 DE=-9.56D-09 OVMax= 1.94D-05

 Cycle  12  Pass 1  IDiag  1:
 RMSU=  1.22D-07    CP:  8.77D-01  1.52D+00  7.51D-01  5.98D-01  1.09D+00
                    CP:  1.03D+00  9.91D-01  1.17D+00  1.17D+00  9.86D-01
                    CP:  1.07D+00
 E= -454.074711542595     Delta-E=       -0.000000000582 Rises=F Damp=F
 DIIS: error= 6.98D-07 at cycle  12 NSaved=  12.
 NSaved=12 IEnMin=12 EnMin= -454.074711542595     IErMin=12 ErrMin= 6.98D-07
 ErrMax= 6.98D-07  0.00D+00 EMaxC= 1.00D-01 BMatC= 1.04D-10 BMatP= 4.24D-10
 IDIUse=1 WtCom= 1.00D+00 WtEn= 0.00D+00
 Coeff-Com:  0.138D-04-0.308D-04-0.393D-05 0.166D-03 0.692D-03 0.123D-02
 Coeff-Com: -0.319D-02-0.115D-01-0.134D-01-0.189D-01 0.328D+00 0.717D+00
 Coeff:      0.138D-04-0.308D-04-0.393D-05 0.166D-03 0.692D-03 0.123D-02
 Coeff:     -0.319D-02-0.115D-01-0.134D-01-0.189D-01 0.328D+00 0.717D+00
 Gap=     0.302 Goal=   None    Shift=    0.000
 RMSDP=1.63D-07 MaxDP=1.19D-05 DE=-5.82D-10 OVMax= 4.34D-06

 Cycle  13  Pass 1  IDiag  1:
 RMSU=  5.76D-08    CP:  8.77D-01  1.52D+00  7.51D-01  5.98D-01  1.09D+00
                    CP:  1.03D+00  9.91D-01  1.18D+00  1.19D+00  9.94D-01
                    CP:  1.14D+00  1.08D+00
 E= -454.074711542716     Delta-E=       -0.000000000121 Rises=F Damp=F
 DIIS: error= 1.88D-07 at cycle  13 NSaved=  13.
 NSaved=13 IEnMin=13 EnMin= -454.074711542716     IErMin=13 ErrMin= 1.88D-07
 ErrMax= 1.88D-07  0.00D+00 EMaxC= 1.00D-01 BMatC= 6.22D-12 BMatP= 1.04D-10
 IDIUse=1 WtCom= 1.00D+00 WtEn= 0.00D+00
 Coeff-Com:  0.939D-05-0.202D-04-0.165D-04-0.786D-05 0.132D-03 0.493D-03
 Coeff-Com:  0.525D-03-0.161D-03-0.857D-02-0.272D-01-0.133D-03 0.129D+00
 Coeff-Com:  0.906D+00
 Coeff:      0.939D-05-0.202D-04-0.165D-04-0.786D-05 0.132D-03 0.493D-03
 Coeff:      0.525D-03-0.161D-03-0.857D-02-0.272D-01-0.133D-03 0.129D+00
 Coeff:      0.906D+00
 Gap=     0.302 Goal=   None    Shift=    0.000
 RMSDP=3.27D-08 MaxDP=1.70D-06 DE=-1.21D-10 OVMax= 2.11D-06

 Cycle  14  Pass 1  IDiag  1:
 RMSU=  1.90D-08    CP:  8.77D-01  1.52D+00  7.51D-01  5.98D-01  1.09D+00
                    CP:  1.03D+00  9.91D-01  1.18D+00  1.19D+00  9.95D-01
                    CP:  1.17D+00  1.16D+00  1.21D+00
 E= -454.074711542728     Delta-E=       -0.000000000013 Rises=F Damp=F
 DIIS: error= 8.81D-08 at cycle  14 NSaved=  14.
 NSaved=14 IEnMin=14 EnMin= -454.074711542728     IErMin=14 ErrMin= 8.81D-08
 ErrMax= 8.81D-08  0.00D+00 EMaxC= 1.00D-01 BMatC= 1.31D-12 BMatP= 6.22D-12
 IDIUse=1 WtCom= 1.00D+00 WtEn= 0.00D+00
 Coeff-Com:  0.324D-05-0.680D-05-0.848D-05-0.271D-04-0.334D-04 0.817D-04
 Coeff-Com:  0.603D-03 0.147D-02-0.182D-02-0.101D-01-0.390D-01-0.424D-01
 Coeff-Com:  0.390D+00 0.701D+00
 Coeff:      0.324D-05-0.680D-05-0.848D-05-0.271D-04-0.334D-04 0.817D-04
 Coeff:      0.603D-03 0.147D-02-0.182D-02-0.101D-01-0.390D-01-0.424D-01
 Coeff:      0.390D+00 0.701D+00
 Gap=     0.302 Goal=   None    Shift=    0.000
 RMSDP=1.16D-08 MaxDP=6.17D-07 DE=-1.27D-11 OVMax= 8.18D-07

 Cycle  15  Pass 1  IDiag  1:
 RMSU=  6.09D-09    CP:  8.77D-01  1.52D+00  7.51D-01  5.98D-01  1.09D+00
                    CP:  1.03D+00  9.91D-01  1.18D+00  1.19D+00  9.95D-01
                    CP:  1.18D+00  1.18D+00  1.28D+00  1.07D+00
 E= -454.074711542730     Delta-E=       -0.000000000001 Rises=F Damp=F
 DIIS: error= 2.07D-08 at cycle  15 NSaved=  15.
 NSaved=15 IEnMin=15 EnMin= -454.074711542730     IErMin=15 ErrMin= 2.07D-08
 ErrMax= 2.07D-08  0.00D+00 EMaxC= 1.00D-01 BMatC= 1.00D-13 BMatP= 1.31D-12
 IDIUse=1 WtCom= 1.00D+00 WtEn= 0.00D+00
 Coeff-Com: -0.785D-06 0.172D-05 0.915D-06-0.404D-05-0.308D-04-0.411D-04
 Coeff-Com:  0.688D-04 0.413D-03 0.705D-03 0.355D-03-0.914D-02-0.280D-01
 Coeff-Com: -0.247D-01 0.150D+00 0.910D+00
 Coeff:     -0.785D-06 0.172D-05 0.915D-06-0.404D-05-0.308D-04-0.411D-04
 Coeff:      0.688D-04 0.413D-03 0.705D-03 0.355D-03-0.914D-02-0.280D-01
 Coeff:     -0.247D-01 0.150D+00 0.910D+00
 Gap=     0.302 Goal=   None    Shift=    0.000
 RMSDP=7.72D-09 MaxDP=7.46D-07 DE=-1.48D-12 OVMax= 2.50D-07

 SCF Done:  E(RCAM-B3LYP) =  -454.074711543     A.U. after   15 cycles
            NFock= 15  Conv=0.77D-08     -V/T= 2.0031
 KE= 4.526887911143D+02 PE=-1.943026080453D+03 EE= 5.956292935130D+02
 Leave Link  502 at Fri Nov 25 12:01:39 2022, MaxMem=  1342177280 cpu:             404.9 elap:               8.2
 (Enter /shared/gaussian/g16.b01/AVX2/g16/l801.exe)
 DoSCS=F DFT=T ScalE2(SS,OS)=  1.000000  1.000000
 ExpMin= 4.38D-02 ExpMax= 8.59D+03 ExpMxC= 1.30D+03 IAcc=3 IRadAn=         5 AccDes= 0.00D+00
 HarFok:  IExCor=  205 AccDes= 0.00D+00 IRadAn=         5 IDoV=-2 UseB2=F ITyADJ=14
 ICtDFT= 12500011 ScaDFX=  1.000000  1.000000  1.000000  1.000000
 Largest valence mixing into a core orbital is  4.79D-05
 Largest core mixing into a valence orbital is  1.03D-05
 Range of M.O.s used for correlation:    10   234
 NBasis=   234 NAE=    33 NBE=    33 NFC=     9 NFV=     0
 NROrb=    225 NOA=    24 NOB=    24 NVA=   201 NVB=   201

 **** Warning!!: The largest alpha MO coefficient is  0.86869813D+02

 Leave Link  801 at Fri Nov 25 12:01:39 2022, MaxMem=  1342177280 cpu:               2.2 elap:               0.1
 (Enter /shared/gaussian/g16.b01/AVX2/g16/l914.exe)
 RHF ground state
 Keep R1, R2, and R3 ints in memory in symmetry-blocked form, NReq=1295426664.
 FoFCou: FMM=F IPFlag=           0 FMFlag=           0 FMFlg1=           0
         NFxFlg=           0 DoJE=F BraDBF=F KetDBF=F FulRan=T
         wScrn=  0.000000 ICntrl=       600 IOpCl=  0 I1Cent=           0 NGrid=           0
         NMat0=    1 NMatS0=  27495 NMatT0=    0 NMatD0=    1 NMtDS0=    0 NMtDT0=    0
 Petite list used in FoFCou.
 MDV=  1342177280 DFT=T DoStab=F Mixed=T DoRPA=T DoScal=F NonHer=T
 Making orbital integer symmetry assigments:
 Orbital symmetries:
       Occupied  (A') (A') (A') (A') (A') (A') (A') (A') (A') (A')
                 (A') (A') (A') (A') (A') (A') (A') (A') (A') (A')
                 (A") (A') (A') (A') (A") (A') (A") (A') (A") (A')
                 (A") (A') (A")
       Virtual   (A") (A') (A') (A') (A") (A") (A') (A') (A') (A")
                 (A") (A') (A') (A') (A") (A') (A') (A') (A") (A")
                 (A') (A") (A') (A') (A') (A') (A') (A') (A") (A')
                 (A") (A') (A') (A') (A') (A") (A') (A') (A') (A')
                 (A') (A') (A") (A') (A') (A') (A') (A') (A') (A')
                 (A") (A') (A') (A') (A') (A') (A') (A") (A') (A")
                 (A") (A') (A") (A') (A") (A') (A') (A') (A') (A')
                 (A') (A') (A') (A") (A') (A') (A") (A') (A') (A')
                 (A') (A") (A') (A') (A") (A') (A") (A") (A') (A")
                 (A') (A") (A') (A') (A') (A") (A') (A") (A') (A')
                 (A") (A') (A") (A') (A') (A') (A") (A") (A') (A')
                 (A") (A') (A") (A') (A') (A') (A') (A") (A') (A')
                 (A') (A') (A") (A') (A") (A') (A') (A') (A') (A')
                 (A") (A') (A") (A") (A') (A') (A") (A') (A") (A')
                 (A") (A') (A") (A') (A') (A') (A') (A') (A") (A")
                 (A") (A') (A') (A") (A') (A') (A') (A") (A') (A')
                 (A") (A') (A') (A') (A") (A") (A') (A') (A') (A')
                 (A') (A') (A') (A') (A") (A") (A') (A") (A') (A')
                 (A') (A') (A') (A') (A') (A") (A") (A') (A') (A')
                 (A') (A') (A') (A') (A') (A') (A') (A') (A') (A')
                 (A')
    40 initial guesses have been made.
 Convergence on wavefunction:    0.000001000000000
 Davidson Disk Diagonalization:  ConvIn= 1.00D-06 SkipCon=T Conv= 1.00D-06.
 Max sub-space:  2000 roots to seek:    40 dimension of matrix:         9648
 Iteration     1 Dimension    40 NMult     0 NNew     40
 CISAX will form    40 AO SS matrices at one time.
 NMat=    40 NSing=    40 JSym2X=-1.
 New state      1 was old state      3
 New state      2 was old state      1
 New state      3 was old state      2
 New state      4 was old state     18
 New state      6 was old state      4
 New state      7 was old state      6
 New state      8 was old state     10
 New state      9 was old state      7
 New state     10 was old state      9
 Excitation Energies [eV] at current iteration:
 Root      1 :     5.383593692967824
 Root      2 :     6.052138032209527
 Root      3 :     6.086520537546673
 Root      4 :     6.764708988619218
 Root      5 :     6.912271366598257
 Root      6 :     7.056171273035580
 Root      7 :     7.140185002696858
 Root      8 :     7.288069458980609
 Root      9 :     7.424790181950344
 Root     10 :     7.479108308368532
 Root     11 :     7.668718245762216
 Root     12 :     7.758084970706539
 Root     13 :     7.768774005449656
 Root     14 :     7.885474301889564
 Root     15 :     7.901813377525841
 Root     16 :     8.103505023786216
 Root     17 :     8.123531664615610
 Root     18 :     8.298623636960095
 Root     19 :     8.388081460169818
 Root     20 :     8.426538366523324
 Root     21 :     8.513648695244791
 Root     22 :     8.660751431834328
 Root     23 :     8.707305116787378
 Root     24 :     8.737476208420482
 Root     25 :     8.814670611696808
 Root     26 :     8.916606108198511
 Root     27 :     9.004359130759262
 Root     28 :     9.125569078951029
 Root     29 :     9.202939459467808
 Root     30 :     9.247751122686063
 Root     31 :     9.251387011236922
 Root     32 :     9.313658571466750
 Root     33 :     9.378729499209664
 Root     34 :     9.384105665625455
 Root     35 :     9.413171882899206
 Root     36 :     9.468456880927439
 Root     37 :     9.630719883123087
 Root     38 :     9.852901682764283
 Root     39 :     9.901661769591074
 Root     40 :    10.005125450771807
 Iteration     2 Dimension    60 NMult    40 NNew     20
 CISAX will form    20 AO SS matrices at one time.
 NMat=    20 NSing=    20 JSym2X=-1.
 Root      1 not converged, maximum delta is    0.067454635349031
 Root      2 not converged, maximum delta is    0.070029114797198
 Root      3 not converged, maximum delta is    0.052557349370982
 Root      4 not converged, maximum delta is    0.107697870790707
 New state      5 was old state      7
 Root      5 not converged, maximum delta is    0.235300797537502
 New state      6 was old state      5
 Root      6 not converged, maximum delta is    0.042896454388557
 New state      7 was old state      9
 Root      7 not converged, maximum delta is    0.329873980096856
 New state      8 was old state      6
 Root      8 not converged, maximum delta is    0.054818409042834
 New state      9 was old state      8
 Root      9 not converged, maximum delta is    0.079053888370795
 Root     10 not converged, maximum delta is    0.191005753223726
 Excitation Energies [eV] at current iteration:
 Root      1 :     5.149497084919275   Change is   -0.234096608048548
 Root      2 :     5.374981803427952   Change is   -0.677156228781575
 Root      3 :     5.947407277657665   Change is   -0.139113259889008
 Root      4 :     6.471649753897877   Change is   -0.293059234721341
 Root      5 :     6.722167800122042   Change is   -0.418017202574816
 Root      6 :     6.782770927186904   Change is   -0.129500439411353
 Root      7 :     6.809616631622643   Change is   -0.615173550327700
 Root      8 :     6.931283665269802   Change is   -0.124887607765778
 Root      9 :     7.183619100963661   Change is   -0.104450358016949
 Root     10 :     7.355367760409905   Change is   -0.123740547958627
 Iteration     3 Dimension    80 NMult    60 NNew     20
 CISAX will form    20 AO SS matrices at one time.
 NMat=    20 NSing=    20 JSym2X=-1.
 Root      1 not converged, maximum delta is    0.011544670382844
 Root      2 not converged, maximum delta is    0.030610448560267
 Root      3 not converged, maximum delta is    0.006225099389351
 Root      4 not converged, maximum delta is    0.006147007149426
 Root      5 not converged, maximum delta is    0.217240717317594
 New state      6 was old state      7
 Root      6 not converged, maximum delta is    0.219087556787138
 New state      7 was old state      6
 Root      7 not converged, maximum delta is    0.005803181654279
 Root      8 not converged, maximum delta is    0.012033570457545
 Root      9 not converged, maximum delta is    0.017545063752724
 Root     10 not converged, maximum delta is    0.096693112164269
 Excitation Energies [eV] at current iteration:
 Root      1 :     5.142782664418903   Change is   -0.006714420500372
 Root      2 :     5.319328887227782   Change is   -0.055652916200170
 Root      3 :     5.944614223050630   Change is   -0.002793054607035
 Root      4 :     6.466007297714087   Change is   -0.005642456183791
 Root      5 :     6.681452479180578   Change is   -0.040715320941464
 Root      6 :     6.739109458460082   Change is   -0.070507173162561
 Root      7 :     6.779522943734104   Change is   -0.003247983452800
 Root      8 :     6.927159343252697   Change is   -0.004124322017105
 Root      9 :     7.174291124553240   Change is   -0.009327976410421
 Root     10 :     7.347966292473529   Change is   -0.007401467936376
 Iteration     4 Dimension   100 NMult    80 NNew     20
 CISAX will form    20 AO SS matrices at one time.
 NMat=    20 NSing=    20 JSym2X=-1.
 Root      1 not converged, maximum delta is    0.001235598376202
 Root      2 not converged, maximum delta is    0.003448573794329
 Root      3 not converged, maximum delta is    0.000708173753749
 Root      4 not converged, maximum delta is    0.001117298279081
 Root      5 not converged, maximum delta is    0.049728018176733
 Root      6 not converged, maximum delta is    0.050671759745406
 Root      7 not converged, maximum delta is    0.001361950405781
 Root      8 not converged, maximum delta is    0.003439734939886
 Root      9 not converged, maximum delta is    0.008212189973247
 Root     10 not converged, maximum delta is    0.115119535249724
 Excitation Energies [eV] at current iteration:
 Root      1 :     5.142573545165974   Change is   -0.000209119252929
 Root      2 :     5.314665818991828   Change is   -0.004663068235954
 Root      3 :     5.944540414544981   Change is   -0.000073808505649
 Root      4 :     6.465769190495804   Change is   -0.000238107218282
 Root      5 :     6.675326152990662   Change is   -0.006126326189916
 Root      6 :     6.732036771461745   Change is   -0.007072686998338
 Root      7 :     6.779357851363660   Change is   -0.000165092370445
 Root      8 :     6.926906459801625   Change is   -0.000252883451072
 Root      9 :     7.173190315897005   Change is   -0.001100808656235
 Root     10 :     7.343781108097209   Change is   -0.004185184376319
 Iteration     5 Dimension   120 NMult   100 NNew     20
 CISAX will form    20 AO SS matrices at one time.
 NMat=    20 NSing=    20 JSym2X=-1.
 Root      1 not converged, maximum delta is    0.000134345332198
 Root      2 not converged, maximum delta is    0.001046518201101
 Root      3 not converged, maximum delta is    0.000131201939602
 Root      4 not converged, maximum delta is    0.000424348582017
 Root      5 not converged, maximum delta is    0.004412109301869
 Root      6 not converged, maximum delta is    0.004535948931160
 Root      7 not converged, maximum delta is    0.000448549793986
 Root      8 not converged, maximum delta is    0.000446904333293
 Root      9 not converged, maximum delta is    0.000963652620017
 Root     10 not converged, maximum delta is    0.038289691834160
 Excitation Energies [eV] at current iteration:
 Root      1 :     5.142568337113777   Change is   -0.000005208052198
 Root      2 :     5.314407780573111   Change is   -0.000258038418717
 Root      3 :     5.944538474551130   Change is   -0.000001939993851
 Root      4 :     6.465755841464197   Change is   -0.000013349031607
 Root      5 :     6.674793380420835   Change is   -0.000532772569826
 Root      6 :     6.731500432780108   Change is   -0.000536338681637
 Root      7 :     6.779349086207320   Change is   -0.000008765156339
 Root      8 :     6.926896191903604   Change is   -0.000010267898021
 Root      9 :     7.173125509566472   Change is   -0.000064806330533
 Root     10 :     7.342439819810176   Change is   -0.001341288287034
 Iteration     6 Dimension   140 NMult   120 NNew     20
 CISAX will form    20 AO SS matrices at one time.
 NMat=    20 NSing=    20 JSym2X=-1.
 Root      1 not converged, maximum delta is    0.000020684257691
 Root      2 not converged, maximum delta is    0.000117406831077
 Root      3 not converged, maximum delta is    0.000028560691362
 Root      4 not converged, maximum delta is    0.000102710893398
 Root      5 not converged, maximum delta is    0.000401806862375
 Root      6 not converged, maximum delta is    0.000467762268564
 Root      7 not converged, maximum delta is    0.000138281642614
 Root      8 not converged, maximum delta is    0.000050601262204
 Root      9 not converged, maximum delta is    0.000141490242566
 Root     10 not converged, maximum delta is    0.006214097948862
 Excitation Energies [eV] at current iteration:
 Root      1 :     5.142568186059099   Change is   -0.000000151054677
 Root      2 :     5.314399080747732   Change is   -0.000008699825379
 Root      3 :     5.944538399944430   Change is   -0.000000074606700
 Root      4 :     6.465755178985011   Change is   -0.000000662479186
 Root      5 :     6.674755533000670   Change is   -0.000037847420166
 Root      6 :     6.731456540801468   Change is   -0.000043891978640
 Root      7 :     6.779348513857609   Change is   -0.000000572349712
 Root      8 :     6.926895734162053   Change is   -0.000000457741551
 Root      9 :     7.173121738752791   Change is   -0.000003770813682
 Root     10 :     7.342246690784090   Change is   -0.000193129026086
 Iteration     7 Dimension   160 NMult   140 NNew     20
 CISAX will form    20 AO SS matrices at one time.
 NMat=    20 NSing=    20 JSym2X=-1.
 Root      1 not converged, maximum delta is    0.000002845497320
 Root      2 not converged, maximum delta is    0.000018503266250
 Root      3 not converged, maximum delta is    0.000004016180216
 Root      4 not converged, maximum delta is    0.000013379076525
 Root      5 not converged, maximum delta is    0.000067432978433
 Root      6 not converged, maximum delta is    0.000063423357394
 Root      7 not converged, maximum delta is    0.000023954262254
 Root      8 not converged, maximum delta is    0.000006476543179
 Root      9 not converged, maximum delta is    0.000035274333352
 Root     10 not converged, maximum delta is    0.000472489314597
 Excitation Energies [eV] at current iteration:
 Root      1 :     5.142568182196141   Change is   -0.000000003862958
 Root      2 :     5.314398789371329   Change is   -0.000000291376403
 Root      3 :     5.944538397281184   Change is   -0.000000002663247
 Root      4 :     6.465755147164756   Change is   -0.000000031820256
 Root      5 :     6.674753706369493   Change is   -0.000001826631177
 Root      6 :     6.731454391719129   Change is   -0.000002149082339
 Root      7 :     6.779348478317496   Change is   -0.000000035540112
 Root      8 :     6.926895712855008   Change is   -0.000000021307045
 Root      9 :     7.173121554712491   Change is   -0.000000184040299
 Root     10 :     7.342232750764359   Change is   -0.000013940019730
 Iteration     8 Dimension   180 NMult   160 NNew     20
 CISAX will form    20 AO SS matrices at one time.
 NMat=    20 NSing=    20 JSym2X=-1.
 Root      1 has converged.
 Root      2 not converged, maximum delta is    0.000003412525394
 Root      3 has converged.
 Root      4 not converged, maximum delta is    0.000001357928756
 Root      5 not converged, maximum delta is    0.000016652518886
 Root      6 not converged, maximum delta is    0.000015477989555
 Root      7 not converged, maximum delta is    0.000001609780310
 Root      8 not converged, maximum delta is    0.000001196009704
 Root      9 not converged, maximum delta is    0.000006147196221
 Root     10 not converged, maximum delta is    0.000069420510830
 Excitation Energies [eV] at current iteration:
 Root      1 :     5.142568182098293   Change is   -0.000000000097849
 Root      2 :     5.314398780607326   Change is   -0.000000008764003
 Root      3 :     5.944538397190880   Change is   -0.000000000090304
 Root      4 :     6.465755145746603   Change is   -0.000000001418152
 Root      5 :     6.674753611898868   Change is   -0.000000094470624
 Root      6 :     6.731454268997417   Change is   -0.000000122721712
 Root      7 :     6.779348477005797   Change is   -0.000000001311699
 Root      8 :     6.926895711896500   Change is   -0.000000000958509
 Root      9 :     7.173121544944003   Change is   -0.000000009768488
 Root     10 :     7.342231879123771   Change is   -0.000000871640588
 Iteration     9 Dimension   196 NMult   180 NNew     16
 CISAX will form    16 AO SS matrices at one time.
 NMat=    16 NSing=    16 JSym2X=-1.
 Root      1 has converged.
 Root      2 has converged.
 Root      3 has converged.
 Root      4 has converged.
 Root      5 not converged, maximum delta is    0.000003468706361
 Root      6 not converged, maximum delta is    0.000003266068937
 Root      7 has converged.
 Root      8 has converged.
 Root      9 not converged, maximum delta is    0.000001024365701
 Root     10 not converged, maximum delta is    0.000015672994683
 Excitation Energies [eV] at current iteration:
 Root      1 :     5.142568182098165   Change is   -0.000000000000128
 Root      2 :     5.314398780303874   Change is   -0.000000000303452
 Root      3 :     5.944538397189940   Change is   -0.000000000000940
 Root      4 :     6.465755145693355   Change is   -0.000000000053248
 Root      5 :     6.674753605927155   Change is   -0.000000005971713
 Root      6 :     6.731454261966578   Change is   -0.000000007030839
 Root      7 :     6.779348476948149   Change is   -0.000000000057648
 Root      8 :     6.926895711846679   Change is   -0.000000000049820
 Root      9 :     7.173121544375092   Change is   -0.000000000568911
 Root     10 :     7.342231822888754   Change is   -0.000000056235018
 Iteration    10 Dimension   204 NMult   196 NNew      8
 CISAX will form     8 AO SS matrices at one time.
 NMat=     8 NSing=     8 JSym2X=-1.
 Root      1 has converged.
 Root      2 has converged.
 Root      3 has converged.
 Root      4 has converged.
 Root      5 has converged.
 Root      6 not converged, maximum delta is    0.000001000825355
 Root      7 has converged.
 Root      8 has converged.
 Root      9 has converged.
 Root     10 not converged, maximum delta is    0.000004869013237
 Excitation Energies [eV] at current iteration:
 Root      1 :     5.142568182098117   Change is   -0.000000000000048
 Root      2 :     5.314398780303441   Change is   -0.000000000000433
 Root      3 :     5.944538397189857   Change is   -0.000000000000083
 Root      4 :     6.465755145693228   Change is   -0.000000000000127
 Root      5 :     6.674753605626702   Change is   -0.000000000300454
 Root      6 :     6.731454261576157   Change is   -0.000000000390420
 Root      7 :     6.779348476948065   Change is   -0.000000000000085
 Root      8 :     6.926895711846762   Change is    0.000000000000083
 Root      9 :     7.173121544342282   Change is   -0.000000000032810
 Root     10 :     7.342231819311968   Change is   -0.000000003576786
 Iteration    11 Dimension   208 NMult   204 NNew      4
 CISAX will form     4 AO SS matrices at one time.
 NMat=     4 NSing=     4 JSym2X=-1.
 Root      1 has converged.
 Root      2 has converged.
 Root      3 has converged.
 Root      4 has converged.
 Root      5 has converged.
 Root      6 has converged.
 Root      7 has converged.
 Root      8 has converged.
 Root      9 has converged.
 Root     10 has converged.
 Excitation Energies [eV] at current iteration:
 Root      1 :     5.142568182098085   Change is   -0.000000000000032
 Root      2 :     5.314398780303100   Change is   -0.000000000000341
 Root      3 :     5.944538397189884   Change is    0.000000000000027
 Root      4 :     6.465755145693215   Change is   -0.000000000000013
 Root      5 :     6.674753605616135   Change is   -0.000000000010567
 Root      6 :     6.731454261554835   Change is   -0.000000000021323
 Root      7 :     6.779348476948089   Change is    0.000000000000024
 Root      8 :     6.926895711846750   Change is   -0.000000000000012
 Root      9 :     7.173121544342361   Change is    0.000000000000080
 Root     10 :     7.342231819090308   Change is   -0.000000000221659
 Convergence achieved on expansion vectors.
 ***********************************************************************
 Excited states from <AA,BB:AA,BB> singles matrix:
 ***********************************************************************
 
 1PDM for each excited state written to RWF  633
 Ground to excited state transition densities written to RWF  633
 Ground to excited state transition electric dipole moments (Au):
       state          X           Y           Z        Dip. S.      Osc.
         1        -0.0000      0.0000      0.0048      0.0000      0.0000
         2        -0.2565      1.1845     -0.0000      1.4687      0.1912
         3        -0.0000     -0.0000     -0.0632      0.0040      0.0006
         4         0.0000     -0.0000     -0.0080      0.0001      0.0000
         5         0.1358     -0.5623      0.0000      0.3346      0.0547
         6        -1.1478      0.0877      0.0000      1.3250      0.2185
         7         0.0000     -0.0000      0.0895      0.0080      0.0013
         8        -0.0000      0.0000     -0.0011      0.0000      0.0000
         9         0.0000      0.0000     -0.0630      0.0040      0.0007
        10         0.0611      0.2317     -0.0000      0.0574      0.0103
 Ground to excited state transition velocity dipole moments (Au):
       state          X           Y           Z        Dip. S.      Osc.
         1        -0.0000     -0.0000      0.0039      0.0000      0.0001
         2         0.0533     -0.2349      0.0000      0.0580      0.1980
         3         0.0000     -0.0000      0.0137      0.0002      0.0006
         4        -0.0000     -0.0000      0.0031      0.0000      0.0000
         5        -0.0306      0.1329      0.0000      0.0186      0.0505
         6         0.2823     -0.0274     -0.0000      0.0804      0.2168
         7        -0.0000      0.0000     -0.0253      0.0006      0.0017
         8         0.0000      0.0000     -0.0024      0.0000      0.0000
         9        -0.0000     -0.0000      0.0055      0.0000      0.0001
        10        -0.0130     -0.0656     -0.0000      0.0045      0.0110
 Ground to excited state transition magnetic dipole moments (Au):
       state          X           Y           Z
         1         0.0901      0.7226      0.0000
         2         0.0000      0.0000      1.1893
         3         0.0404      0.1227      0.0000
         4         0.7265     -0.4203      0.0000
         5        -0.0000     -0.0000      0.0418
         6         0.0000     -0.0000      0.6704
         7         0.3754      0.1100      0.0000
         8         0.2311      0.0977      0.0000
         9        -0.1995      0.3304     -0.0000
        10        -0.0000      0.0000     -0.7877
 Ground to excited state transition velocity quadrupole moments (Au):
       state          XX          YY          ZZ          XY          XZ          YZ
         1         0.0000     -0.0000      0.0000      0.0000     -0.0312      0.0192
         2        -0.0620      0.0004     -0.0100      0.1752     -0.0000      0.0000
         3         0.0000      0.0000      0.0000      0.0000     -0.0708      0.0184
         4        -0.0000     -0.0000     -0.0000      0.0000      0.0188      0.0495
         5        -0.1804      0.7021     -0.0264     -0.0060     -0.0000     -0.0000
         6         0.2065      0.2091     -0.0763     -0.2084      0.0000      0.0000
         7        -0.0000      0.0000      0.0000     -0.0000     -0.0482      0.2612
         8         0.0000      0.0000     -0.0000     -0.0000      0.0332      0.1938
         9        -0.0000     -0.0000     -0.0000     -0.0000     -0.0352     -0.0324
        10        -0.1235     -0.0089      0.1656      0.2686     -0.0000     -0.0000
 <0|del|b> * <b|rxdel|0> + <0|del|b> * <b|delr+rdel|0>
 Rotatory Strengths (R) in cgs (10**-40 erg-esu-cm/Gauss)
       state          XX          YY          ZZ    R(velocity)    E-M Angle
         1        -0.0000     -0.0000     -0.0000     -0.0000       90.00
         2         0.0000      0.0000      0.0000      0.0000       90.00
         3        -0.0000      0.0000     -0.0000     -0.0000       90.00
         4         0.0000     -0.0000     -0.0000     -0.0000       90.00
         5         0.0000      0.0000     -0.0000      0.0000       90.00
         6         0.0000      0.0000      0.0000      0.0000       90.00
         7        -0.0000     -0.0000      0.0000     -0.0000       90.00
         8        -0.0000      0.0000      0.0000      0.0000       90.00
         9        -0.0000      0.0000      0.0000      0.0000       90.00
        10        -0.0000      0.0000     -0.0000     -0.0000       90.00
 1/2[<0|r|b>*<b|rxdel|0> + (<0|rxdel|b>*<b|r|0>)*]
 Rotatory Strengths (R) in cgs (10**-40 erg-esu-cm/Gauss)
       state          XX          YY          ZZ     R(length)
         1         0.0000     -0.0000     -0.0000     -0.0000
         2         0.0000     -0.0000      0.0000      0.0000
         3         0.0000      0.0000      0.0000      0.0000
         4        -0.0000     -0.0000      0.0000     -0.0000
         5         0.0000     -0.0000     -0.0000     -0.0000
         6         0.0000      0.0000     -0.0000      0.0000
         7        -0.0000      0.0000     -0.0000     -0.0000
         8         0.0000     -0.0000      0.0000      0.0000
         9         0.0000     -0.0000     -0.0000      0.0000
        10         0.0000     -0.0000     -0.0000     -0.0000
  1/2[<0|del|b>*<b|r|0> + (<0|r|b>*<b|del|0>)*] (Au)
       state          X           Y           Z        Dip. S.   Osc.(frdel)
         1         0.0000     -0.0000      0.0000     -0.0000     -0.0000
         2        -0.0137     -0.2782     -0.0000      0.2919      0.1946
         3        -0.0000      0.0000     -0.0009      0.0009      0.0006
         4        -0.0000      0.0000     -0.0000      0.0000      0.0000
         5        -0.0042     -0.0747      0.0000      0.0789      0.0526
         6        -0.3240     -0.0024     -0.0000      0.3264      0.2176
         7        -0.0000     -0.0000     -0.0023      0.0023      0.0015
         8        -0.0000      0.0000      0.0000     -0.0000     -0.0000
         9        -0.0000     -0.0000     -0.0003      0.0003      0.0002
        10        -0.0008     -0.0152      0.0000      0.0160      0.0107

 Excitation energies and oscillator strengths:
 
 Excited State   1:      Singlet-A"     5.1426 eV  241.09 nm  f=0.0000  <S**2>=0.000
      30 -> 34        -0.18938
      32 -> 34         0.62803
      32 -> 38        -0.20909
 
 Excited State   2:      Singlet-A'     5.3144 eV  233.30 nm  f=0.1912  <S**2>=0.000
      33 -> 34         0.69017
 
 Excited State   3:      Singlet-A"     5.9445 eV  208.57 nm  f=0.0006  <S**2>=0.000
      33 -> 35         0.69012
 
 Excited State   4:      Singlet-A"     6.4658 eV  191.76 nm  f=0.0000  <S**2>=0.000
      30 -> 34         0.25974
      30 -> 38         0.38301
      30 -> 39        -0.20254
      30 -> 52         0.11665
      32 -> 34         0.16494
      32 -> 38         0.39748
      32 -> 39        -0.17721
 This state for optimization and/or second-order correction.
 Total Energy, E(TD-HF/TD-DFT) =  -453.837099413    
 Copying the excited state density for this state as the 1-particle RhoCI density.
 
 Excited State   5:      Singlet-A'     6.6748 eV  185.75 nm  f=0.0547  <S**2>=0.000
      31 -> 34         0.68634
 
 Excited State   6:      Singlet-A'     6.7315 eV  184.19 nm  f=0.2185  <S**2>=0.000
      33 -> 38         0.66365
      33 -> 39        -0.18842
 
 Excited State   7:      Singlet-A"     6.7793 eV  182.89 nm  f=0.0013  <S**2>=0.000
      33 -> 36         0.27388
      33 -> 37         0.59719
      33 -> 41        -0.19371
 
 Excited State   8:      Singlet-A"     6.9269 eV  178.99 nm  f=0.0000  <S**2>=0.000
      33 -> 36         0.61027
      33 -> 37        -0.27521
      33 -> 40        -0.12310
 
 Excited State   9:      Singlet-A"     7.1731 eV  172.85 nm  f=0.0007  <S**2>=0.000
      30 -> 34         0.61444
      30 -> 38        -0.20747
      32 -> 34         0.14621
      32 -> 38        -0.19627
 
 Excited State  10:      Singlet-A'     7.3422 eV  168.86 nm  f=0.0103  <S**2>=0.000
      32 -> 35        -0.28799
      32 -> 37         0.29123
      33 -> 38         0.13451
      33 -> 39         0.52305
 SavETr:  write IOETrn=   770 NScale= 10 NData=  16 NLR=1 NState=   10 LETran=     190.
 The selected state is a singlet.
 CISGrd: IGrad=3 NXY=2 DFT=T
 CISAX will form     1 AO SS matrices at one time.
 NMat=     1 NSing=     1 JSym2X=-1.
 Leave Link  914 at Fri Nov 25 12:02:00 2022, MaxMem=  1342177280 cpu:            1040.0 elap:              21.3
 (Enter /shared/gaussian/g16.b01/AVX2/g16/l1002.exe)
 Minotr:  Closed shell wavefunction.
          Computing CIS/TDA/TD derivatives.
          Using Z-Vector for PSCF gradient.
          Skipping F1 and S1 gradient terms here.
          IDoAtm=111111111111111
          Frozen-core window.
          Direct CPHF calculation.
          Differentiating once with respect to electric field.
                with respect to dipole field.
          Differentiating once with respect to nuclear coordinates.
          Requested convergence is 1.0D-10 RMS, and 1.0D-09 maximum.
          NewPWx=F KeepS1=T KeepF1=T KeepIn=T MapXYZ=F SortEE=F KeepMc=T.
 Keep R1 ints in memory in symmetry-blocked form, NReq=1150524893.
 FoFCou: FMM=F IPFlag=           0 FMFlag=           0 FMFlg1=           0
         NFxFlg=           0 DoJE=F BraDBF=F KetDBF=F FulRan=T
         wScrn=  0.000000 ICntrl=       600 IOpCl=  0 I1Cent=           0 NGrid=           0
         NMat0=    1 NMatS0=  27495 NMatT0=    0 NMatD0=    1 NMtDS0=    0 NMtDT0=    0
 Petite list used in FoFCou.
 Two-electron integral symmetry used by symmetrizing perturbed Fock matrices.
          MDV=    1342177280 using IRadAn=       5.
          Solving linear equations separately, MaxMat=       0.
          There are     1 degrees of freedom in the 1st order CPHF.  IDoFFX=0 NUNeed=     1.
 LinEq1:  Iter=  0 NonCon=     1 RMS=1.46D-02 Max=3.63D-01 NDo=     1
 AX will form     1 AO Fock derivatives at one time.
 LinEq1:  Iter=  1 NonCon=     1 RMS=4.03D-03 Max=1.22D-01 NDo=     1
 LinEq1:  Iter=  2 NonCon=     1 RMS=2.97D-03 Max=1.22D-01 NDo=     1
 LinEq1:  Iter=  3 NonCon=     1 RMS=1.33D-03 Max=3.70D-02 NDo=     1
 LinEq1:  Iter=  4 NonCon=     1 RMS=9.65D-04 Max=3.43D-02 NDo=     1
 LinEq1:  Iter=  5 NonCon=     1 RMS=3.43D-04 Max=1.17D-02 NDo=     1
 LinEq1:  Iter=  6 NonCon=     1 RMS=1.95D-04 Max=4.73D-03 NDo=     1
 LinEq1:  Iter=  7 NonCon=     1 RMS=9.27D-05 Max=2.52D-03 NDo=     1
 LinEq1:  Iter=  8 NonCon=     1 RMS=4.09D-05 Max=8.28D-04 NDo=     1
 LinEq1:  Iter=  9 NonCon=     1 RMS=1.54D-05 Max=2.73D-04 NDo=     1
 LinEq1:  Iter= 10 NonCon=     1 RMS=8.65D-06 Max=2.09D-04 NDo=     1
 LinEq1:  Iter= 11 NonCon=     1 RMS=2.56D-06 Max=3.60D-05 NDo=     1
 LinEq1:  Iter= 12 NonCon=     1 RMS=1.17D-06 Max=2.25D-05 NDo=     1
 LinEq1:  Iter= 13 NonCon=     1 RMS=4.23D-07 Max=7.45D-06 NDo=     1
 LinEq1:  Iter= 14 NonCon=     1 RMS=9.93D-08 Max=1.38D-06 NDo=     1
 LinEq1:  Iter= 15 NonCon=     1 RMS=3.52D-08 Max=9.14D-07 NDo=     1
 LinEq1:  Iter= 16 NonCon=     1 RMS=1.36D-08 Max=1.82D-07 NDo=     1
 LinEq1:  Iter= 17 NonCon=     1 RMS=3.46D-09 Max=5.91D-08 NDo=     1
 LinEq1:  Iter= 18 NonCon=     1 RMS=1.06D-09 Max=1.64D-08 NDo=     1
 LinEq1:  Iter= 19 NonCon=     1 RMS=4.99D-10 Max=9.35D-09 NDo=     1
 LinEq1:  Iter= 20 NonCon=     1 RMS=9.51D-11 Max=1.80D-09 NDo=     1
 LinEq1:  Iter= 21 NonCon=     0 RMS=2.04D-11 Max=3.67D-10 NDo=     1
 Linear equations converged to 1.000D-10 1.000D-09 after    21 iterations.
          There are     1 degrees of freedom in the 1st order CPHF.  IDoFFX=0 NUNeed=     1.
 End of Minotr F.D. properties file   721 does not exist.
 End of Minotr F.D. properties file   722 does not exist.
 End of Minotr F.D. properties file   788 does not exist.
 Leave Link 1002 at Fri Nov 25 12:02:11 2022, MaxMem=  1342177280 cpu:             279.9 elap:              10.6
 (Enter /shared/gaussian/g16.b01/AVX2/g16/l1101.exe)
 Using compressed Sx but separate Hx and Fx, NAtomX=    15.
 Will process     16 centers per pass.
 Leave Link 1101 at Fri Nov 25 12:02:11 2022, MaxMem=  1342177280 cpu:              10.5 elap:               0.2
 (Enter /shared/gaussian/g16.b01/AVX2/g16/l1102.exe)
 Use density number 6.
 Symmetrizing basis deriv contribution to polar:
 IMax=3 JMax=2 DiffMx= 0.00D+00
 Leave Link 1102 at Fri Nov 25 12:02:11 2022, MaxMem=  1342177280 cpu:               0.9 elap:               0.0
 (Enter /shared/gaussian/g16.b01/AVX2/g16/l1110.exe)
 Forming Gx(P) for the SCF density, NAtomX=    15.
 Integral derivatives from FoFJK, PRISM(SPDF).
 Do as many integral derivatives as possible in FoFJK.
 G2DrvN: MDV=    1342175944.
 G2DrvN: will do    16 centers at a time, making    1 passes.
 Calling FoFCou, ICntrl=  3107 FMM=F I1Cent=   0 AccDes= 0.00D+00.
 FoFJK:  IHMeth= 1 ICntrl=    3107 DoSepK=T KAlg= 0 I1Cent=           0 FoldK=F
 IRaf=         1 NMat=       1 IRICut=       1 DoRegI=T DoRafI=F ISym2E= 1 IDoP0=0 IntGTp=1.
 FoFCou: FMM=F IPFlag=           0 FMFlag=      100000 FMFlg1=           0
         NFxFlg=           0 DoJE=F BraDBF=F KetDBF=F FulRan=T
         wScrn=  0.000000 ICntrl=      3507 IOpCl=  0 I1Cent=           0 NGrid=           0
         NMat0=    1 NMatS0=      1 NMatT0=    0 NMatD0=    1 NMtDS0=    0 NMtDT0=    0
 Petite list used in FoFCou.
 Forming Gx(P) for generalized density number  6 NAtomX=    15.
 Integral derivatives from FoFJK, PRISM(SPDF).
 Do as many integral derivatives as possible in FoFJK.
 G2DrvN: MDV=    1342175944.
 G2DrvN: will do    16 centers at a time, making    1 passes.
 Calling FoFCou, ICntrl=  3107 FMM=F I1Cent=   0 AccDes= 0.00D+00.
 Forming Gx(T) for CIS/TDA/TD state  4 NAtomX=    15.
 Integral derivatives from FoFJK, PRISM(SPDF).
 Do as many integral derivatives as possible in FoFJK.
 G2DrvN: MDV=    1342175944.
 G2DrvN: will do    16 centers at a time, making    1 passes.
 Calling FoFCou, ICntrl=  3107 FMM=F I1Cent=   0 AccDes= 0.00D+00.
 End of G2Drv F.D. properties file   721 does not exist.
 End of G2Drv F.D. properties file   722 does not exist.
 End of G2Drv F.D. properties file   788 does not exist.
 Leave Link 1110 at Fri Nov 25 12:02:25 2022, MaxMem=  1342177280 cpu:             664.4 elap:              13.3
 (Enter /shared/gaussian/g16.b01/AVX2/g16/l1002.exe)
 Minotr:  Closed shell wavefunction.
          IDoAtm=111111111111111
          Frozen-core window.
          Direct CPHF calculation.
          Differentiating once with respect to electric field.
                with respect to dipole field.
          Differentiating once with respect to nuclear coordinates.
          Requested convergence is 1.0D-08 RMS, and 1.0D-07 maximum.
          Secondary convergence is 1.0D-12 RMS, and 1.0D-12 maximum.
          NewPWx=T KeepS1=T KeepF1=T KeepIn=T MapXYZ=F SortEE=F KeepMc=T.
         4625 words used for storage of precomputed grid.
 Keep R1 ints in memory in symmetry-blocked form, NReq=1150529518.
 FoFCou: FMM=F IPFlag=           0 FMFlag=           0 FMFlg1=           0
         NFxFlg=           0 DoJE=F BraDBF=F KetDBF=F FulRan=T
         wScrn=  0.000000 ICntrl=       600 IOpCl=  0 I1Cent=           0 NGrid=           0
         NMat0=    1 NMatS0=  27495 NMatT0=    0 NMatD0=    1 NMtDS0=    0 NMtDT0=    0
 Petite list used in FoFCou.
          MDV=    1342177280 using IRadAn=       1.
          Solving linear equations simultaneously, MaxMat=       0.
          There are    48 degrees of freedom in the 1st order CPHF.  IDoFFX=6 NUNeed=    48.
     45 vectors produced by pass  0 Test12= 1.38D-14 2.08D-09 XBig12= 6.26D+01 5.13D+00.
 AX will form    45 AO Fock derivatives at one time.
     45 vectors produced by pass  1 Test12= 1.38D-14 2.08D-09 XBig12= 1.03D+01 4.76D-01.
     45 vectors produced by pass  2 Test12= 1.38D-14 2.08D-09 XBig12= 2.19D-01 1.04D-01.
     45 vectors produced by pass  3 Test12= 1.38D-14 2.08D-09 XBig12= 2.12D-03 9.24D-03.
     45 vectors produced by pass  4 Test12= 1.38D-14 2.08D-09 XBig12= 1.54D-05 5.52D-04.
     45 vectors produced by pass  5 Test12= 1.38D-14 2.08D-09 XBig12= 8.10D-08 3.82D-05.
     37 vectors produced by pass  6 Test12= 1.38D-14 2.08D-09 XBig12= 2.92D-10 2.28D-06.
     14 vectors produced by pass  7 Test12= 1.38D-14 2.08D-09 XBig12= 1.09D-12 1.71D-07.
      3 vectors produced by pass  8 Test12= 1.38D-14 2.08D-09 XBig12= 4.46D-15 1.04D-08.
 InvSVY:  IOpt=1 It=  1 EMax= 6.22D-15
 Solved reduced A of dimension   324 with    48 vectors.
 FullF1:  Do perturbations      1 to      48.
 Isotropic polarizability for W=    0.000000       77.06 Bohr**3.
 Saving first derivative matrices.
 End of Minotr F.D. properties file   721 does not exist.
 End of Minotr F.D. properties file   722 does not exist.
 End of Minotr F.D. properties file   788 does not exist.
 Leave Link 1002 at Fri Nov 25 12:02:35 2022, MaxMem=  1342177280 cpu:             517.7 elap:              10.4
 (Enter /shared/gaussian/g16.b01/AVX2/g16/l1014.exe)
 This link is doing    48 degrees of freedom
 Form MO integral derivatives with frozen-active canonical formalism.
 CISSec: MDV=    1342170192
 Doing TD-HF/TD-DFT second derivatives, IDoFFX=6 IOneXC=4 IRadAn=         1.
 Frozen orbitals handled with amplitudes over full window.
 Frozen-core window:  NFC=   9 NFV=   0.
 Symmetry is being used.
 Keep R1, R2, and R3 ints in memory in symmetry-blocked form, NReq=1150584035.
 FoFCou: FMM=F IPFlag=           0 FMFlag=           0 FMFlg1=           0
         NFxFlg=           0 DoJE=F BraDBF=F KetDBF=F FulRan=T
         wScrn=  0.000000 ICntrl=       600 IOpCl=  0 I1Cent=           0 NGrid=           0
         NMat0=    1 NMatS0=  27495 NMatT0=    0 NMatD0=    1 NMtDS0=    0 NMtDT0=    0
 Petite list used in FoFCou.
 The selected state is a singlet.
 CISGrX: IGrad=3 NXY=2 DFT=T
 CISAX will form    48 AO SS matrices at one time.
 NMat=    48 NSing=    48 JSym2X= 2.
     45 vectors produced by pass  0 Test12= 2.01D-14 2.08D-09 XBig12= 3.01D+01 3.04D+00.
 AX will form    45 AO Fock derivatives at one time.
     45 vectors produced by pass  1 Test12= 2.01D-14 2.08D-09 XBig12= 3.80D+00 1.08D+00.
     45 vectors produced by pass  2 Test12= 2.01D-14 2.08D-09 XBig12= 4.58D-01 1.70D-01.
     45 vectors produced by pass  3 Test12= 2.01D-14 2.08D-09 XBig12= 5.65D-03 1.60D-02.
     45 vectors produced by pass  4 Test12= 2.01D-14 2.08D-09 XBig12= 5.27D-05 1.32D-03.
     45 vectors produced by pass  5 Test12= 2.01D-14 2.08D-09 XBig12= 1.23D-06 3.06D-04.
     42 vectors produced by pass  6 Test12= 2.01D-14 2.08D-09 XBig12= 2.57D-08 3.13D-05.
     30 vectors produced by pass  7 Test12= 2.01D-14 2.08D-09 XBig12= 4.71D-10 4.85D-06.
     16 vectors produced by pass  8 Test12= 2.01D-14 2.08D-09 XBig12= 7.85D-12 6.27D-07.
     10 vectors produced by pass  9 Test12= 2.01D-14 2.08D-09 XBig12= 9.26D-14 7.38D-08.
      5 vectors produced by pass 10 Test12= 2.01D-14 2.08D-09 XBig12= 1.52D-15 8.92D-09.
 InvSVY:  IOpt=1 It=  1 EMax= 1.78D-15
 Solved reduced A of dimension   373 with    48 vectors.
 Tx.T = -3.37D-06 for pert.     1
 Tx.T =  2.09D-06 for pert.     2
 Tx.T =  3.77D-07 for pert.    13
 Tx.T = -2.71D-07 for pert.    17
 Tx.T =  2.47D-07 for pert.    22
 Tx.T =  2.17D-07 for pert.    20
 Tx.T =  2.01D-07 for pert.     8
 Tx.T = -1.76D-07 for pert.    23
 Tx.T = -1.71D-07 for pert.     5
 Tx.T = -1.66D-07 for pert.     4
 SavDET:  read IOETrn=   770 NScale= 10 NData=  16 NLR=1 NState=   10 NDeriv=    0 LETran=     190.
 SavDET: write IOETrn=   770 NScale= 10 NData=  16 NLR=1 NState=   10 NDeriv=   48 LETran=     958.
 TDDxLx will form    48 C1x/S1x matrices at one time.
 Interchange theorem applied.
 FoFJK:  IHMeth= 1 ICntrl=    5100 DoSepK=T KAlg= 0 I1Cent=           0 FoldK=F
 IRaf=         1 NMat=       1 IRICut=       1 DoRegI=T DoRafI=F ISym2E= 0 IDoP0=0 IntGTp=1.
 Leave Link 1014 at Fri Nov 25 12:02:54 2022, MaxMem=  1342177280 cpu:             945.3 elap:              19.0
 (Enter /shared/gaussian/g16.b01/AVX2/g16/l601.exe)
 Copying SCF densities to generalized density rwf, IOpCl= 0 IROHF=0.

 **********************************************************************

            Population analysis using the SCF Density.

 **********************************************************************

 Orbital symmetries:
       Occupied  (A') (A') (A') (A') (A') (A') (A') (A') (A') (A')
                 (A') (A') (A') (A') (A') (A') (A') (A') (A') (A')
                 (A") (A') (A') (A') (A") (A') (A") (A') (A") (A')
                 (A") (A') (A")
       Virtual   (A") (A') (A') (A') (A") (A") (A') (A') (A') (A")
                 (A") (A') (A') (A') (A") (A') (A') (A') (A") (A")
                 (A') (A") (A') (A') (A') (A') (A') (A') (A") (A')
                 (A") (A') (A') (A') (A') (A") (A') (A') (A') (A')
                 (A') (A') (A") (A') (A') (A') (A') (A') (A') (A')
                 (A") (A') (A') (A') (A') (A') (A') (A") (A') (A")
                 (A") (A') (A") (A') (A") (A') (A') (A') (A') (A')
                 (A') (A') (A') (A") (A') (A') (A") (A') (A') (A')
                 (A') (A") (A') (A') (A") (A') (A") (A") (A') (A")
                 (A') (A") (A') (A') (A') (A") (A') (A") (A') (A')
                 (A") (A') (A") (A') (A') (A') (A") (A") (A') (A')
                 (A") (A') (A") (A') (A') (A') (A') (A") (A') (A')
                 (A') (A') (A") (A') (A") (A') (A') (A') (A') (A')
                 (A") (A') (A") (A") (A') (A') (A") (A') (A") (A')
                 (A") (A') (A") (A') (A') (A') (A') (A') (A") (A")
                 (A") (A') (A') (A") (A') (A') (A') (A") (A') (A')
                 (A") (A') (A') (A') (A") (A") (A') (A') (A') (A')
                 (A') (A') (A') (A') (A") (A") (A') (A") (A') (A')
                 (A') (A') (A') (A') (A') (A") (A") (A') (A') (A')
                 (A') (A') (A') (A') (A') (A') (A') (A') (A') (A')
                 (A')
 The electronic state is 1-A'.
 Alpha  occ. eigenvalues --  -19.18506 -19.18389 -14.46254 -14.44870 -10.40961
 Alpha  occ. eigenvalues --  -10.37656 -10.33047 -10.27865 -10.25540  -1.17874
 Alpha  occ. eigenvalues --   -1.14626  -1.07595  -1.02248  -0.91389  -0.80632
 Alpha  occ. eigenvalues --   -0.76868  -0.75140  -0.65566  -0.65174  -0.60221
 Alpha  occ. eigenvalues --   -0.57170  -0.55457  -0.52377  -0.51058  -0.50867
 Alpha  occ. eigenvalues --   -0.48264  -0.47949  -0.46529  -0.43743  -0.37633
 Alpha  occ. eigenvalues --   -0.36263  -0.34676  -0.31071
 Alpha virt. eigenvalues --   -0.00845   0.00927   0.03499   0.03649   0.04544
 Alpha virt. eigenvalues --    0.05658   0.06162   0.07298   0.07681   0.08723
 Alpha virt. eigenvalues --    0.09828   0.10048   0.10770   0.12155   0.13774
 Alpha virt. eigenvalues --    0.14345   0.14806   0.15422   0.15719   0.16976
 Alpha virt. eigenvalues --    0.17092   0.18675   0.18811   0.19696   0.20870
 Alpha virt. eigenvalues --    0.21365   0.22914   0.23796   0.24088   0.24159
 Alpha virt. eigenvalues --    0.24435   0.25328   0.25881   0.28100   0.29063
 Alpha virt. eigenvalues --    0.29995   0.30094   0.30405   0.30822   0.32611
 Alpha virt. eigenvalues --    0.33363   0.34812   0.35098   0.35576   0.37105
 Alpha virt. eigenvalues --    0.38118   0.39543   0.41525   0.42126   0.43601
 Alpha virt. eigenvalues --    0.46572   0.47768   0.52072   0.53990   0.55891
 Alpha virt. eigenvalues --    0.58123   0.59470   0.59954   0.62667   0.63067
 Alpha virt. eigenvalues --    0.63439   0.65822   0.66157   0.68736   0.70141
 Alpha virt. eigenvalues --    0.70278   0.72058   0.74002   0.75508   0.77956
 Alpha virt. eigenvalues --    0.78642   0.82707   0.84090   0.86011   0.86553
 Alpha virt. eigenvalues --    0.89891   0.90219   0.91623   0.92976   0.96832
 Alpha virt. eigenvalues --    0.98400   1.01521   1.02854   1.08026   1.08172
 Alpha virt. eigenvalues --    1.13639   1.16821   1.17270   1.17730   1.20320
 Alpha virt. eigenvalues --    1.20658   1.23891   1.24655   1.25106   1.25925
 Alpha virt. eigenvalues --    1.28923   1.29391   1.33548   1.37331   1.40453
 Alpha virt. eigenvalues --    1.42992   1.48404   1.52180   1.55441   1.58572
 Alpha virt. eigenvalues --    1.59775   1.61773   1.63305   1.63427   1.68253
 Alpha virt. eigenvalues --    1.70549   1.71729   1.73410   1.77177   1.78492
 Alpha virt. eigenvalues --    1.83052   1.85402   1.85621   1.88496   1.89484
 Alpha virt. eigenvalues --    1.92067   1.93859   1.98843   2.02864   2.04311
 Alpha virt. eigenvalues --    2.05662   2.09300   2.15444   2.20097   2.21158
 Alpha virt. eigenvalues --    2.28933   2.31319   2.35484   2.38984   2.39352
 Alpha virt. eigenvalues --    2.46292   2.47297   2.52487   2.52694   2.58036
 Alpha virt. eigenvalues --    2.58559   2.62207   2.64493   2.65543   2.70245
 Alpha virt. eigenvalues --    2.71617   2.75087   2.81765   2.82305   2.85330
 Alpha virt. eigenvalues --    2.87511   2.91888   2.93201   2.95545   2.95556
 Alpha virt. eigenvalues --    2.97723   3.00526   3.00837   3.04891   3.05656
 Alpha virt. eigenvalues --    3.05973   3.18188   3.22170   3.36280   3.43290
 Alpha virt. eigenvalues --    3.44129   3.47040   3.50826   3.54682   3.61887
 Alpha virt. eigenvalues --    3.65604   3.69249   3.71995   3.77932   3.85673
 Alpha virt. eigenvalues --    3.88786   3.91723   3.93505   3.98079   4.09795
 Alpha virt. eigenvalues --    4.27885   4.37188   4.77830   4.87809   4.93666
 Alpha virt. eigenvalues --    5.10721   5.13409   5.21872   5.27130   5.41976
 Alpha virt. eigenvalues --    5.82884   5.87277  23.73032  23.90409  23.95199
 Alpha virt. eigenvalues --   24.01724  24.24756  35.62291  35.67855  50.05645
 Alpha virt. eigenvalues --   50.10687
          Condensed to atoms (all electrons):
               1          2          3          4          5          6
     1  N    7.085708   0.301348  -0.269981   0.194354   0.233085  -0.333051
     2  C    0.301348   5.038359   0.157818  -0.231765   0.389685  -0.455967
     3  N   -0.269981   0.157818   7.413103  -0.166890  -0.384201   0.572279
     4  C    0.194354  -0.231765  -0.166890   6.989660  -0.484348  -0.553534
     5  C    0.233085   0.389685  -0.384201  -0.484348   7.881862  -1.893579
     6  C   -0.333051  -0.455967   0.572279  -0.553534  -1.893579   8.746888
     7  O   -0.133808   0.399727  -0.100084   0.025638  -0.038873   0.068191
     8  O    0.000256   0.035246  -0.103011   0.349036  -0.103978  -0.030252
     9  H    0.344795  -0.022555   0.011846  -0.008518   0.001485  -0.010488
    10  H    0.012207  -0.021225   0.325549  -0.007545   0.027008  -0.024767
    11  C    0.006084  -0.021901  -0.000589  -0.222911  -0.172598  -0.105020
    12  H   -0.049015   0.011138  -0.005232  -0.002750   0.044225   0.322826
    13  H   -0.000998   0.001367  -0.000173  -0.018323  -0.159431   0.053181
    14  H    0.001300   0.000938  -0.000382   0.014487   0.033781  -0.029764
    15  H    0.001300   0.000938  -0.000382   0.014487   0.033781  -0.029764
               7          8          9         10         11         12
     1  N   -0.133808   0.000256   0.344795   0.012207   0.006084  -0.049015
     2  C    0.399727   0.035246  -0.022555  -0.021225  -0.021901   0.011138
     3  N   -0.100084  -0.103011   0.011846   0.325549  -0.000589  -0.005232
     4  C    0.025638   0.349036  -0.008518  -0.007545  -0.222911  -0.002750
     5  C   -0.038873  -0.103978   0.001485   0.027008  -0.172598   0.044225
     6  C    0.068191  -0.030252  -0.010488  -0.024767  -0.105020   0.322826
     7  O    8.126956   0.001582   0.011439   0.007458   0.004441  -0.000133
     8  O    0.001582   8.121174  -0.000040   0.009051   0.059880  -0.000061
     9  H    0.011439  -0.000040   0.341455  -0.000083   0.000487  -0.004488
    10  H    0.007458   0.009051  -0.000083   0.320744   0.004138   0.000070
[...]
      4   0.112288D-02  0.793657D-02  0.000000D+00 -0.881915D-03  0.498374D-02
      5   0.000000D+00  0.000000D+00 -0.158862D-01  0.000000D+00  0.000000D+00
      6   0.000000D+00  0.000000D+00  0.114981D-01  0.000000D+00  0.000000D+00
      7  -0.700946D-03 -0.989591D-03  0.000000D+00 -0.670345D-03 -0.453284D-03
      8  -0.971917D-02 -0.189010D-01  0.000000D+00 -0.114417D-01  0.422215D-02
      9  -0.117878D-01  0.486775D-02  0.000000D+00 -0.497975D-01 -0.685149D-02
     10   0.000000D+00  0.000000D+00 -0.512208D-02  0.000000D+00  0.000000D+00
     11   0.000000D+00  0.000000D+00  0.284681D-02  0.000000D+00  0.000000D+00
     12   0.000000D+00  0.000000D+00 -0.224386D-01  0.000000D+00  0.000000D+00
     13   0.000000D+00  0.000000D+00  0.172375D-02  0.000000D+00  0.000000D+00
     14   0.000000D+00  0.000000D+00  0.135104D-01  0.000000D+00  0.000000D+00
     15   0.354345D-03 -0.117594D-02  0.000000D+00  0.289561D-02  0.525296D-02
     16   0.402560D-02 -0.676502D-02  0.000000D+00  0.193462D-02  0.242230D-02
                36            37            38            39            40 
      1   0.000000D+00  0.000000D+00  0.000000D+00  0.000000D+00  0.000000D+00
      2   0.457398D-01  0.000000D+00  0.000000D+00  0.133182D+00  0.000000D+00
      3   0.156031D-01  0.000000D+00  0.000000D+00  0.468772D-02  0.000000D+00
      4   0.000000D+00 -0.106035D-02  0.139935D-01  0.000000D+00  0.594786D-03
      5  -0.106678D-01  0.000000D+00  0.000000D+00 -0.322119D-01  0.000000D+00
      6  -0.212689D-02  0.000000D+00  0.000000D+00 -0.440394D-03  0.000000D+00
      7   0.000000D+00 -0.507129D-03 -0.225392D-02  0.000000D+00  0.748191D-04
      8   0.000000D+00 -0.735044D-02  0.268039D-01  0.000000D+00  0.121565D-02
      9   0.000000D+00  0.893593D-02 -0.597357D-01  0.000000D+00 -0.629198D-02
     10  -0.187980D+00  0.000000D+00  0.000000D+00 -0.899080D-01  0.000000D+00
     11  -0.208306D-01  0.000000D+00  0.000000D+00 -0.277647D-01  0.000000D+00
     12   0.106463D-01  0.000000D+00  0.000000D+00 -0.485662D-01  0.000000D+00
     13   0.556994D-02  0.000000D+00  0.000000D+00  0.132629D-01  0.000000D+00
     14   0.103915D-01  0.000000D+00  0.000000D+00  0.344965D-01  0.000000D+00
     15   0.000000D+00  0.239191D-03  0.140259D-01  0.000000D+00 -0.115867D-03
     16   0.000000D+00  0.244693D-03  0.964203D-02  0.000000D+00 -0.381575D-04
                41            42            43            44            45 
      1   0.000000D+00  0.000000D+00  0.000000D+00  0.000000D+00  0.000000D+00
      2   0.000000D+00  0.333926D-01 -0.614819D-01 -0.626382D-01 -0.234567D-01
      3   0.000000D+00  0.597476D-03 -0.973013D-02 -0.847653D-02 -0.811805D-02
      4  -0.149040D-02  0.000000D+00 -0.877198D-03  0.546176D-03 -0.458085D-04
      5   0.000000D+00 -0.769869D-02  0.146517D-01  0.148063D-01  0.535130D-02
      6   0.000000D+00 -0.593097D-04  0.193310D-02  0.166254D-02  0.188675D-02
      7   0.373207D-03  0.000000D+00  0.207630D-03 -0.353174D-03 -0.106644D-03
      8  -0.215643D-02  0.000000D+00  0.308995D-02 -0.133103D-02 -0.397532D-02
      9   0.989298D-02  0.000000D+00  0.835967D-02 -0.986305D-02 -0.111135D-01
     10   0.000000D+00 -0.138900D-01  0.725327D-01  0.505054D-01  0.514093D-01
     11   0.000000D+00 -0.248731D-02  0.681399D-02  0.126514D-02  0.485943D-02
     12   0.000000D+00 -0.730387D-02  0.119057D-01  0.312577D-01  0.107547D-01
     13   0.000000D+00  0.305777D-02 -0.517089D-02 -0.541983D-02 -0.426857D-02
     14   0.000000D+00  0.256865D-02 -0.929678D-02 -0.206830D-01 -0.150910D-01
     15  -0.195042D-02  0.000000D+00  0.348238D-03  0.836834D-03  0.595995D-03
     16  -0.515655D-03  0.000000D+00 -0.219963D-02 -0.198672D-03 -0.644769D-03
                46            47            48 
      1   0.000000D+00  0.000000D+00  0.000000D+00
      2   0.614819D-01  0.626382D-01 -0.234567D-01
      3   0.973013D-02  0.847653D-02 -0.811805D-02
      4  -0.877198D-03  0.546176D-03  0.458085D-04
      5  -0.146517D-01 -0.148063D-01  0.535130D-02
      6  -0.193310D-02 -0.166254D-02  0.188675D-02
      7   0.207630D-03 -0.353174D-03  0.106644D-03
      8   0.308995D-02 -0.133103D-02  0.397532D-02
      9   0.835967D-02 -0.986305D-02  0.111135D-01
     10  -0.725327D-01 -0.505054D-01  0.514093D-01
     11  -0.681399D-02 -0.126514D-02  0.485943D-02
     12  -0.119057D-01 -0.312577D-01  0.107547D-01
     13   0.517089D-02  0.541983D-02 -0.426857D-02
     14   0.929678D-02  0.206830D-01 -0.150910D-01
     15   0.348237D-03  0.836834D-03 -0.595995D-03
     16  -0.219963D-02 -0.198672D-03  0.644768D-03

 ----------------------------------------------------------------------

 Electric dipole moment (input orientation):
 (Debye = 10**-18 statcoulomb cm , SI units = C m)
                  (au)            (Debye)         (10**-30 SI)
   Tot        0.159862D+01      0.406329D+01      0.135537D+02
   x         -0.237703D+00     -0.604181D+00     -0.201533D+01
   y         -0.158085D+01     -0.401812D+01     -0.134030D+02
   z          0.000000D+00      0.000000D+00      0.000000D+00

 Dipole polarizability, Alpha (input orientation).
 (esu units = cm**3 , SI units = C**2 m**2 J**-1)
 Alpha(0;0):
               (au)            (10**-24 esu)      (10**-40 SI)
   iso        0.103091D+03      0.152766D+02      0.169975D+02
   aniso      0.101112D+03      0.149833D+02      0.166712D+02
   xx         0.131707D+03      0.195169D+02      0.217155D+02
   yx        -0.369237D+02     -0.547153D+01     -0.608790D+01
   yy         0.126605D+03      0.187609D+02      0.208743D+02
   zx         0.000000D+00      0.000000D+00      0.000000D+00
   zy         0.000000D+00      0.000000D+00      0.000000D+00
   zz         0.509630D+02      0.755194D+01      0.840266D+01

 ----------------------------------------------------------------------

 Dipole orientation:
     7          0.74878263         -0.11259005          3.05656112
     6          2.77783168         -0.41768624          1.44835236
     7          2.10138835         -0.31597343         -1.06682917
     6         -0.30991887          0.04660068         -2.08429247
     6         -2.32615206          0.34976983         -0.21171397
     6         -1.69577516          0.25498375          2.24009689
     8          4.91778225         -0.73945805          2.17714776
     8         -0.61378095          0.09229064         -4.35198628
     1          1.16581313         -0.17529648          4.91389769
     1          3.52849954         -0.53055976         -2.32114214
     6         -4.95960937          0.74574734         -1.15734331
     1         -3.08328048          0.46361478          3.72915065
     1         -6.28526568          0.94507850          0.40821940
     1         -5.06742321          2.43622019         -2.33508096
     1         -5.55978888         -0.83826870         -2.33508096

 Electric dipole moment (dipole orientation):
 (Debye = 10**-18 statcoulomb cm , SI units = C m)
                  (au)            (Debye)         (10**-30 SI)
   Tot        0.159862D+01      0.406329D+01      0.135537D+02
   x          0.000000D+00      0.000000D+00      0.000000D+00
   y          0.000000D+00      0.000000D+00      0.000000D+00
   z          0.159862D+01      0.406329D+01      0.135537D+02

 Dipole polarizability, Alpha (dipole orientation).
 (esu units = cm**3 , SI units = C**2 m**2 J**-1)
 Alpha(0;0):
               (au)            (10**-24 esu)      (10**-40 SI)
   iso        0.103091D+03      0.152766D+02      0.169975D+02
   aniso      0.101112D+03      0.149833D+02      0.166712D+02
   xx         0.140430D+03      0.208095D+02      0.231537D+02
   yx        -0.134526D+02     -0.199347D+01     -0.221803D+01
   yy         0.529858D+02      0.785168D+01      0.873618D+01
   zx         0.341568D+02      0.506152D+01      0.563170D+01
   zy        -0.513596D+01     -0.761071D+00     -0.846805D+00
   zz         0.115859D+03      0.171685D+02      0.191025D+02

 ----------------------------------------------------------------------
 1\1\GINC-BAKU2\Freq\RCAM-B3LYP TD-FC\6-311+G(d,p)\C5H6N2O2\ROOT\25-Nov
 -2022\0\\#p freq td=(nstates=10,root=4) cam-b3lyp/6-311+G(d,p) symm=lo
 ose\\Thymine TDDFT excited state 4\\0,1\N,0.155734,-1.659062,0.\C,1.35
 6002,-0.978945,0.\N,1.19595,0.39106,0.\C,0.,1.115359,0.\C,-1.214288,0.
 295879,0.\C,-1.073627,-1.037299,0.\O,2.43107,-1.530594,0.\O,0.017636,2
 .326209,0.\H,0.230273,-2.664179,0.\H,2.04984,0.933881,0.\C,-2.533447,1
 .000264,0.\H,-1.925029,-1.70611,0.\H,-3.35814,0.286495,0.\H,-2.628104,
 1.644735,0.876132\H,-2.628104,1.644735,-0.876132\\Version=ES64L-G16Rev
 B.01\State=1-A'\HF=-454.0747115\RMSD=7.721e-09\RMSF=3.630e-02\ZeroPoin
 t=0.1078746\Thermal=0.1153741\Dipole=-0.237703,-1.580849,0.\DipoleDeri
 v=1.2107336,-0.2206483,0.,0.9269391,-0.8280453,0.,0.,0.,-0.2895729,-0.
 2097072,1.3558686,0.,-0.2150427,0.05317,0.,0.,0.,0.3650391,0.5285034,-
 0.5357971,0.,-0.9394163,0.1129239,0.,0.,0.,-0.4403328,-0.726544,1.2654
 281,0.,0.0187492,1.4794904,0.,0.,0.,0.2940159,0.5163766,-1.0597722,0.,
 1.2871607,-1.3337018,0.,0.,0.,-0.197539,-0.1447532,-0.3759323,0.,-1.29
 90355,1.1460849,0.,0.,0.,-0.0942337,-1.4167304,-0.3254227,0.,0.4022138
 ,0.0451974,0.,0.,0.,-0.158501,-0.2949929,-0.17497,0.,-0.0035864,-1.293
 5928,0.,0.,0.,-0.347851,0.1574091,0.0407766,0.,-0.0771192,0.3156945,0.
 ,0.,0.,0.282454,0.1623246,0.1309592,0.,0.0223969,0.1324484,0.,0.,0.,0.
 2940499,0.225724,0.0026586,0.,-0.0637289,0.1131492,0.,0.,0.,0.1811525,
 0.1105571,-0.1186744,0.,-0.1117277,0.0996188,0.,0.,0.,0.1526942,-0.087
 1267,-0.0220391,0.,-0.1377405,-0.0341901,0.,0.,0.,0.081219,-0.0158871,
 0.0187825,-0.0210714,0.0949688,-0.0041237,-0.0842368,0.0670964,-0.0868
 524,-0.0612972,-0.0158871,0.0187825,0.0210714,0.0949688,-0.0041237,0.0
 842368,-0.0670964,0.0868524,-0.0612972\Polar=131.7067,-36.923743,126.6
 045219,0.,0.,50.9629975\PG=CS [SG(C5H4N2O2),X(H2)]\NImag=4\\0.62178311
 ,-0.06695698,0.82073729,0.,0.,-0.00427660,-0.19920834,-0.07779938,0.,0
 .95187222,-0.08127077,-0.12742501,0.,-0.16777591,0.60550301,0.,0.,0.05
 449580,0.,0.,-0.34869929,-0.05911481,-0.08728502,0.,-0.06693338,0.0360
 5676,0.,0.66151761,0.03324601,-0.01730845,0.,-0.06917990,-0.32662410,0
 .,0.12197019,0.73401975,0.,0.,-0.01417527,0.,0.,0.09431234,0.,0.,-0.03
 554244,0.05649169,0.07673173,0.,-0.00384176,-0.03665409,0.,-0.11245721
 ,-0.03226586,0.,0.36628329,-0.01257065,0.03165900,0.,0.06275237,-0.072
 34504,0.,0.02210411,-0.10004679,0.,0.03416841,0.94134819,0.,0.,-0.0092
 3330,0.,0.,0.01577699,0.,0.,-0.03813759,0.,0.,0.16485210,-0.02596708,0
 .02514615,0.,0.02152589,0.00550712,0.,-0.09417018,0.01028819,0.,-0.122
 01979,-0.03507153,0.,0.55284523,-0.03611278,-0.09552269,0.,-0.00900215
 ,0.04707681,0.,-0.06293276,0.07493380,0.,0.08545583,-0.08533100,0.,-0.
 11325374,0.75001514,0.,0.,0.01332505,0.,0.,-0.03070557,0.,0.,0.0268179
 7,0.,0.,-0.07007605,0.,0.,0.08875080,-0.25875027,0.08105258,0.,-0.0643
 9670,-0.00464421,0.,0.00775226,0.00494588,0.,0.02371855,-0.01771600,0.
 ,-0.11811856,0.03346741,0.,0.65859002,0.12560946,-0.11631888,0.,-0.015
 14643,-0.02812376,0.,0.06367494,-0.05162397,0.,-0.12676989,-0.06877995
 ,0.,0.06831480,-0.43057361,0.,0.03015732,0.82149739,0.,0.,-0.02872932,
 0.,0.,0.03862453,0.,0.,-0.01218085,0.,0.,-0.00068063,0.,0.,-0.02409526
 ,0.,0.,0.08472881,-0.02418065,0.05834350,0.,-0.63125961,0.24333222,0.,
 0.02983597,0.04174659,0.,-0.08502359,-0.03822405,0.,0.02296127,0.08195
 394,0.,-0.01010237,-0.07315664,0.,0.66158483,-0.02324071,-0.01801628,0
 .,0.31108885,-0.09434565,0.,0.01920161,-0.03837902,0.,0.03864366,0.022
 08098,0.,-0.00734984,-0.04240351,0.,0.00192423,0.03908294,0.,-0.320962
 52,0.13962519,0.,0.,-0.02301612,0.,0.,0.18321236,0.,0.,-0.03215421,0.,
 0.,-0.01238366,0.,0.,0.00840384,0.,0.,-0.01669364,0.,0.,-0.11737970,-0
 .00551512,-0.01450802,0.,-0.01512947,0.01777869,0.,-0.01336879,0.06686
 997,0.,-0.07304735,-0.01611690,0.,-0.00179215,-0.06229493,0.,-0.011933
 72,0.01997095,0.,0.02284608,-0.01072424,0.,0.09042925,0.00770360,-0.02
 117891,0.,-0.00546389,0.03326443,0.,0.05390716,-0.08995180,0.,-0.02955
 118,-0.68948588,0.,-0.02548702,-0.08335526,0.,-0.01722698,0.03303669,0
 .,0.01225861,-0.01249147,0.,0.00377221,0.82980128,0.,0.,0.00366876,0.,
 0.,-0.00260471,0.,0.,0.01534485,0.,0.,-0.06487375,0.,0.,0.02050374,0.,
 0.,0.00279214,0.,0.,0.00359064,0.,0.,0.03107355,-0.07416639,0.02479833
 ,0.,-0.00042095,-0.02776580,0.,-0.00660321,-0.00458929,0.,0.00184071,0
 .00215460,0.,-0.00650387,-0.00401663,0.,0.00511830,0.03704532,0.,0.007
 21435,-0.00359329,0.,-0.00062240,-0.00067457,0.,0.07354523,0.02719632,
 -0.45792479,0.,-0.00189066,-0.01403756,0.,0.00045589,-0.00242571,0.,-0
 .00585919,-0.00165659,0.,0.00402890,0.00757398,0.,-0.00024657,-0.01156
 994,0.,-0.00098086,0.00128747,0.,0.00082116,0.00174843,0.,-0.02338870,
 0.47649509,0.,0.,0.00257948,0.,0.,0.00000314,0.,0.,-0.00098468,0.,0.,-
 0.00183874,0.,0.,0.00342321,0.,0.,-0.00728421,0.,0.,0.00038719,0.,0.,0
 .00020878,0.,0.,0.00332112,0.00257024,0.00023785,0.,0.00365666,0.01084
 735,0.,-0.33937311,-0.17344520,0.,-0.02525639,-0.01910791,0.,-0.000559
 53,0.00287066,0.,-0.00136929,0.00388125,0.,0.00538787,-0.00367308,0.,0
 .00512331,-0.00114255,0.,0.00027294,0.00028001,0.,0.35034377,0.0022011
 2,-0.00365628,0.,-0.02675758,-0.02213042,0.,-0.16465857,-0.17955462,0.
 ,0.00935650,0.01772149,0.,0.00500677,0.00195278,0.,0.00090956,-0.00369
 069,0.,-0.00495734,0.00454499,0.,-0.00161420,-0.00139528,0.,-0.0009072
 1,-0.00032832,0.,0.18061059,0.18581727,0.,0.,-0.00084155,0.,0.,-0.0023
 4263,0.,0.,-0.00218272,0.,0.,0.00287808,0.,0.,0.00203862,0.,0.,-0.0011
 8583,0.,0.,0.00228727,0.,0.,-0.00501447,0.,0.,-0.00015014,0.,0.,0.0033
 6216,-0.00257353,-0.00874290,0.,-0.00300772,0.00394460,0.,-0.00447177,
 0.00248631,0.,-0.02581004,0.00775794,0.,-0.19937994,0.05842756,0.,-0.0
 0138758,0.01250893,0.,0.00675483,-0.00428289,0.,0.00027023,0.00400747,
 0.,0.00020619,0.00005062,0.,-0.00103659,0.00070507,0.,0.52323833,0.003
 90251,-0.00388976,0.,-0.00243905,-0.00194040,0.,-0.00572464,-0.0032864
 2,0.,-0.01385504,0.01332310,0.,0.05902547,-0.12132479,0.,0.02881216,-0
 .01188888,0.,0.00033123,-0.00014915,0.,-0.00151558,-0.00032130,0.,0.00
 108565,-0.00030021,0.,-0.00124118,0.00082798,0.,0.04341713,0.56517800,
 0.,0.,0.00682206,0.,0.,-0.00375185,0.,0.,0.00128419,0.,0.,0.00273019,0
 .,0.,-0.05822912,0.,0.,-0.00164067,0.,0.,0.00089018,0.,0.,-0.00255449,
 0.,0.,0.00310890,0.,0.,0.00141910,0.,0.,0.54264837,-0.03206498,-0.0194
 5052,0.,0.00149661,0.00555342,0.,-0.00307514,0.00273209,0.,0.00550644,
 0.00212546,0.,0.00350298,-0.00169171,0.,-0.22662825,-0.13529274,0.,0.0
 0189254,-0.00164701,0.,-0.00024122,-0.00033371,0.,0.00025712,-0.000099
 71,0.,0.00008602,0.00010392,0.,0.00107960,0.00117966,0.,0.24788180,0.0
 2090142,0.01203520,0.,0.00313192,-0.00122630,0.,0.00195931,-0.00123630
 ,0.,-0.00039225,-0.00432896,0.,-0.02260515,-0.00910924,0.,-0.14569271,
 -0.17493628,0.,-0.00207608,0.00073052,0.,-0.00152163,-0.00193307,0.,-0
 .00019286,0.00108105,0.,-0.00018141,-0.00006884,0.,-0.00193245,0.00094
 442,0.,0.14708258,0.17787532,0.,0.,0.00232860,0.,0.,-0.00124463,0.,0.,
 -0.00111403,0.,0.,0.01111372,0.,0.,0.00784084,0.,0.,-0.03322381,0.,0.,
 0.00343541,0.,0.,-0.00321989,0.,0.,-0.00261937,0.,0.,-0.00033613,0.,0.
 ,-0.00494020,0.,0.,0.02109336,0.00042963,0.00092427,0.,-0.00025799,-0.
 00024548,0.,-0.00112184,-0.00143963,0.,-0.00413685,0.00366391,0.,-0.02
 074786,-0.01854610,0.,0.00152338,-0.00315215,0.,-0.00008944,-0.0000405
 1,0.,0.00054067,0.00027692,0.,-0.00003861,-0.00012002,0.,-0.00037576,0
 .00029512,0.,-0.19920264,-0.13163687,0.,0.00030825,0.00107609,0.,0.217
 77936,-0.00038038,0.00041866,0.,-0.00006904,0.00054897,0.,0.00076282,0
 .00026821,0.,0.00297544,-0.00291114,0.,0.01363115,0.01129253,0.,0.0010
 4937,0.00073120,0.,0.00011492,-0.00005824,0.,-0.00105452,0.00082160,0.
 ,-0.00008128,-0.00001036,0.,0.00025952,-0.00007040,0.,-0.13481894,-0.1
 6607699,0.,-0.00034697,0.00007672,0.,0.14395536,0.17834438,0.,0.,0.000
 04258,0.,0.,0.00033369,0.,0.,-0.00012178,0.,0.,0.00089299,0.,0.,-0.001
 60964,0.,0.,-0.00012783,0.,0.,-0.00025239,0.,0.,0.00020935,0.,0.,0.000
 01381,0.,0.,0.00000457,0.,0.,-0.04696068,0.,0.,0.00022623,0.,0.,0.0440
 0867,0.00013325,0.00375420,-0.00157181,0.00295227,-0.00233195,0.000202
 53,0.00079180,-0.00168268,-0.00022126,-0.00112385,0.00204012,-0.000271
 83,-0.00578820,0.02283770,0.02240791,-0.00200789,-0.00382257,0.0022923
 5,-0.00391103,0.00232787,0.00037786,0.00122034,-0.00102304,-0.00029406
 ,-0.00004970,-0.00012359,-0.00072409,0.00026493,-0.00014688,-0.0000373
 4,-0.04733968,0.00932927,0.01604409,-0.00000089,0.00022160,0.00053284,
 0.00269485,-0.01299872,-0.02077107,0.05215579,-0.00011409,-0.00180455,
 -0.00053080,-0.00072457,0.00090250,-0.00043699,0.00025409,0.00060771,0
 .00024885,-0.00099205,-0.00062370,-0.00022991,0.00640937,-0.01261247,-
 0.01001447,0.00160398,0.00157887,-0.00029110,0.00113824,-0.00075439,0.
 00053807,0.00006851,0.00072027,0.00018180,0.00006286,0.00003373,0.0001
 9192,-0.00009796,0.00001518,0.00015289,0.00823577,-0.13554780,-0.12608
 402,0.00004262,0.00004788,-0.00038427,0.00249455,-0.01168757,-0.016117
 37,-0.01687137,0.14721512,-0.00072917,-0.00131118,-0.00149508,-0.00145
 081,0.00168891,0.00129492,-0.00030820,0.00109030,-0.00058290,0.0008078
 4,-0.00183608,-0.00051018,0.00260842,0.00014739,0.00680578,-0.00024686
 ,0.00205249,-0.00015172,0.00208827,-0.00134660,-0.00016359,-0.00096576
 ,0.00092157,0.00043774,-0.00011310,0.00012785,-0.00008425,-0.00011168,
 0.00002632,0.00003183,0.01488578,-0.12540629,-0.22041299,-0.00004110,0
 .00002563,0.00032995,-0.00107844,0.00202189,0.00167022,-0.01665565,0.1
 3728662,0.23609190,0.00013325,0.00375420,0.00157181,0.00295227,-0.0023
 3195,-0.00020253,0.00079180,-0.00168268,0.00022126,-0.00112385,0.00204
 012,0.00027183,-0.00578820,0.02283770,-0.02240791,-0.00200789,-0.00382
 257,-0.00229235,-0.00391103,0.00232787,-0.00037786,0.00122034,-0.00102
 304,0.00029406,-0.00004970,-0.00012359,0.00072409,0.00026493,-0.000146
 88,0.00003734,-0.04733968,0.00932927,-0.01604409,-0.00000089,0.0002216
 0,-0.00053284,0.00269485,-0.01299872,0.02077107,0.00000802,-0.00150997
 ,0.00131046,0.05215579,-0.00011409,-0.00180455,0.00053080,-0.00072457,
 0.00090250,0.00043699,0.00025409,0.00060771,-0.00024885,-0.00099205,-0
 .00062370,0.00022991,0.00640937,-0.01261247,0.01001447,0.00160398,0.00
 157887,0.00029110,0.00113824,-0.00075439,-0.00053807,0.00006851,0.0007
 2027,-0.00018180,0.00006286,0.00003373,-0.00019192,-0.00009796,0.00001
 518,-0.00015289,0.00823577,-0.13554780,0.12608402,0.00004262,0.0000478
 8,0.00038427,0.00249455,-0.01168757,0.01611737,-0.00150997,0.01190922,
 -0.01548879,-0.01687137,0.14721512,0.00072917,0.00131118,-0.00149508,0
 .00145081,-0.00168891,0.00129492,0.00030820,-0.00109030,-0.00058290,-0
 .00080784,0.00183608,-0.00051018,-0.00260842,-0.00014739,0.00680578,0.
 00024686,-0.00205249,-0.00015172,-0.00208827,0.00134660,-0.00016359,0.
 00096576,-0.00092157,0.00043774,0.00011310,-0.00012785,-0.00008425,0.0
 0011168,-0.00002632,0.00003183,-0.01488578,0.12540629,-0.22041299,0.00
 004110,-0.00002563,0.00032995,0.00107844,-0.00202189,0.00167022,-0.001
 31046,0.01548879,-0.02326163,0.01665565,-0.13728662,0.23609190\\0.0049
 8025,0.01254202,0.,0.16711573,-0.05466491,0.,-0.03058057,-0.03474347,0
 .,0.01178943,0.01356275,0.,-0.00156046,-0.02453961,0.,-0.01454437,0.02
 775003,0.,-0.14026330,0.06584411,0.,-0.00618370,-0.00198502,0.,0.00590
 833,-0.00053355,0.,0.00405075,-0.00361867,0.,-0.00266608,-0.00043331,0
 .,-0.00193627,0.00172167,0.,0.00032715,0.00005799,0.,0.00178156,-0.000
 48002,-0.00071221,0.00178156,-0.00048002,0.00071221\\\@


 IF MATHEMATICALLY YOU END UP WITH THE INCORRECT ANSWER,
 TRY MULTIPLYING BY THE PAGE NUMBER.
 Job cpu time:       0 days  1 hours 19 minutes 12.9 seconds.
 Elapsed time:       0 days  0 hours  1 minutes 41.3 seconds.
 File lengths (MBytes):  RWF=    392 Int=      0 D2E=      0 Chk=     22 Scr=      1
 Normal termination of Gaussian 16 at Fri Nov 25 12:03:11 2022.
