 Entering Gaussian System, Link 0=/shared/gaussian/g16.b01/AVX2/g16/g16
 Initial command:
 /shared/gaussian/g16.b01/AVX2/g16/l1.exe "/scratch/marlene/SCRGAU.150026.Thymine6311-freq-solv-ES4/Gau-62641.inp" -scrdir="/scratch/marlene/SCRGAU.150026.Thymine6311-freq-solv-ES4/"
 Entering Link 1 = /shared/gaussian/g16.b01/AVX2/g16/l1.exe PID=     62642.
  
 Copyright (c) 1988-2017, Gaussian, Inc.  All Rights Reserved.
  
 This is part of the Gaussian(R) 16 program.  It is based on
 the Gaussian(R) 09 system (copyright 2009, Gaussian, Inc.),
 the Gaussian(R) 03 system (copyright 2003, Gaussian, Inc.),
 the Gaussian(R) 98 system (copyright 1998, Gaussian, Inc.),
 the Gaussian(R) 94 system (copyright 1995, Gaussian, Inc.),
 the Gaussian 92(TM) system (copyright 1992, Gaussian, Inc.),
 the Gaussian 90(TM) system (copyright 1990, Gaussian, Inc.),
 the Gaussian 88(TM) system (copyright 1988, Gaussian, Inc.),
 the Gaussian 86(TM) system (copyright 1986, Carnegie Mellon
 University), and the Gaussian 82(TM) system (copyright 1983,
 Carnegie Mellon University). Gaussian is a federally registered
 trademark of Gaussian, Inc.
  
 This software contains proprietary and confidential information,
 including trade secrets, belonging to Gaussian, Inc.
  
 This software is provided under written license and may be
 used, copied, transmitted, or stored only in accord with that
 written license.
  
 The following legend is applicable only to US Government
 contracts under FAR:
  
                    RESTRICTED RIGHTS LEGEND
  
 Use, reproduction and disclosure by the US Government is
 subject to restrictions as set forth in subparagraphs (a)
 and (c) of the Commercial Computer Software - Restricted
 Rights clause in FAR 52.227-19.
  
 Gaussian, Inc.
 340 Quinnipiac St., Bldg. 40, Wallingford CT 06492
  
  
 ---------------------------------------------------------------
 Warning -- This program may not be used in any manner that
 competes with the business of Gaussian, Inc. or will provide
 assistance to any competitor of Gaussian, Inc.  The licensee
 of this program is prohibited from giving any competitor of
 Gaussian, Inc. access to this program.  By using this program,
 the user acknowledges that Gaussian, Inc. is engaged in the
 business of creating and licensing software in the field of
 computational chemistry and represents and warrants to the
 licensee that it is not a competitor of Gaussian, Inc. and that
 it will not use this program in any manner prohibited above.
 ---------------------------------------------------------------
  

 Cite this work as:
 Gaussian 16, Revision B.01,
 M. J. Frisch, G. W. Trucks, H. B. Schlegel, G. E. Scuseria, 
 M. A. Robb, J. R. Cheeseman, G. Scalmani, V. Barone, 
 G. A. Petersson, H. Nakatsuji, X. Li, M. Caricato, A. V. Marenich, 
 J. Bloino, B. G. Janesko, R. Gomperts, B. Mennucci, H. P. Hratchian, 
 J. V. Ortiz, A. F. Izmaylov, J. L. Sonnenberg, D. Williams-Young, 
 F. Ding, F. Lipparini, F. Egidi, J. Goings, B. Peng, A. Petrone, 
 T. Henderson, D. Ranasinghe, V. G. Zakrzewski, J. Gao, N. Rega, 
 G. Zheng, W. Liang, M. Hada, M. Ehara, K. Toyota, R. Fukuda, 
 J. Hasegawa, M. Ishida, T. Nakajima, Y. Honda, O. Kitao, H. Nakai, 
 T. Vreven, K. Throssell, J. A. Montgomery, Jr., J. E. Peralta, 
 F. Ogliaro, M. J. Bearpark, J. J. Heyd, E. N. Brothers, K. N. Kudin, 
 V. N. Staroverov, T. A. Keith, R. Kobayashi, J. Normand, 
 K. Raghavachari, A. P. Rendell, J. C. Burant, S. S. Iyengar, 
 J. Tomasi, M. Cossi, J. M. Millam, M. Klene, C. Adamo, R. Cammi, 
 J. W. Ochterski, R. L. Martin, K. Morokuma, O. Farkas, 
 J. B. Foresman, and D. J. Fox, Gaussian, Inc., Wallingford CT, 2016.
 
 ******************************************
 Gaussian 16:  ES64L-G16RevB.01 20-Dec-2017
                 5-Jan-2023 
 ******************************************
 %nprocshared=50
 Will use up to   50 processors via shared memory.
 %mem=10GB
 %chk=Thymine6311-freq-solv-ES4.chk
 ----------------------------------------------------------------------
 #p freq td=(nstates=10,root=4) cam-b3lyp/6-311+g(d,p) scrf=(solvent=wa
 ter,pcm) symm=loose
 ----------------------------------------------------------------------
 1/10=4,30=1,38=1/1,3;
 2/12=2,17=4,18=3,40=1/2;
 3/5=4,6=6,7=111,11=9,25=1,30=1,70=2201,71=2,72=1,74=-40,140=1/1,2,3,8;
 4//1;
 5/5=2,38=5,53=1,98=1/2;
 8/6=1,10=2,107=4,108=10/1;
 9/8=4,15=3,41=10,42=1,70=2/14;
 10/5=2004,20=4,28=4/2;
 11/6=1,8=1,12=-4,16=1,42=3/1,2,10;
 10/6=3,21=1,28=4/2,14;
 6/7=2,8=2,9=2,10=2/1;
 7/8=1,10=1,12=6,13=8,14=4,25=1,44=2/1,2,3,16;
 1/10=4,30=1/3;
 99//99;
 Leave Link    1 at Thu Jan  5 15:00:27 2023, MaxMem=  1342177280 cpu:               2.5 elap:               0.1
 (Enter /shared/gaussian/g16.b01/AVX2/g16/l101.exe)
 --------------------
 Thymine solvated ES4
 --------------------
 Symbolic Z-matrix:
 Charge =  0 Multiplicity = 1
 N                    -0.23117  -0.03514  -0.18765 
 C                     1.09637  -0.362    -0.13809 
 N                     1.94349   0.69304   0.00033 
 C                     1.50712   1.98844   0.09405 
 C                     0.20304   2.31854   0.06272 
 C                    -0.75796   1.242    -0.07949 
 H                    -0.88878  -0.81343  -0.33326 
 O                     1.49365  -1.52662  -0.21212 
 H                     2.93788   0.46073   0.03201 
 H                     2.28981   2.72781   0.1993 
 O                    -1.97581   1.4124   -0.10838 
 C                    -0.29892   3.72357   0.17089 
 H                    -0.87752   4.00063  -0.71272 
 H                    -0.95505   3.8378    1.03618 
 H                     0.53193   4.42132   0.27266 
 O                    -2.15696  -2.18939  -0.54554 
 H                     0.53502  -3.05163   0.41374 
 O                     4.21976  -1.0042    0.05234 
 H                    -3.35011   0.32965   0.14121 
 H                    -2.95662  -1.6966   -0.24879 
 H                    -2.33746  -2.49334  -1.44134 
 O                    -0.11605  -3.71234   0.69918 
 H                    -0.9538   -3.34536   0.37493 
 H                     3.43773  -1.55482  -0.12499 
 H                     4.87117  -1.22696  -0.61977 
 O                    -4.00852  -0.39484   0.18979 
 H                    -4.41687  -0.34438   1.0594 
 
 ITRead=  0  0  0  0  0  0  0  0  0  0  0  0  0  0  0  0  0  0  0  0
 ITRead=  0  0  0  0  0  0  0
 MicOpt= -1 -1 -1 -1 -1 -1 -1 -1 -1 -1 -1 -1 -1 -1 -1 -1 -1 -1 -1 -1
 MicOpt= -1 -1 -1 -1 -1 -1 -1
 NAtoms=     27 NQM=       27 NQMF=       0 NMMI=      0 NMMIF=      0
                NMic=       0 NMicF=      0.
                    Isotopes and Nuclear Properties:
 (Nuclear quadrupole moments (NQMom) in fm**2, nuclear magnetic moments (NMagM)
  in nuclear magnetons)

  Atom         1           2           3           4           5           6           7           8           9          10
 IAtWgt=          14          12          14          12          12          12           1          16           1           1
 AtmWgt=  14.0030740  12.0000000  14.0030740  12.0000000  12.0000000  12.0000000   1.0078250  15.9949146   1.0078250   1.0078250
 NucSpn=           2           0           2           0           0           0           1           0           1           1
 AtZEff=  -0.0000000  -0.0000000  -0.0000000  -0.0000000  -0.0000000  -0.0000000  -0.0000000  -0.0000000  -0.0000000  -0.0000000
 NQMom=    2.0440000   0.0000000   2.0440000   0.0000000   0.0000000   0.0000000   0.0000000   0.0000000   0.0000000   0.0000000
 NMagM=    0.4037610   0.0000000   0.4037610   0.0000000   0.0000000   0.0000000   2.7928460   0.0000000   2.7928460   2.7928460
 AtZNuc=   7.0000000   6.0000000   7.0000000   6.0000000   6.0000000   6.0000000   1.0000000   8.0000000   1.0000000   1.0000000

  Atom        11          12          13          14          15          16          17          18          19          20
 IAtWgt=          16          12           1           1           1          16           1          16           1           1
 AtmWgt=  15.9949146  12.0000000   1.0078250   1.0078250   1.0078250  15.9949146   1.0078250  15.9949146   1.0078250   1.0078250
 NucSpn=           0           0           1           1           1           0           1           0           1           1
 AtZEff=  -0.0000000  -0.0000000  -0.0000000  -0.0000000  -0.0000000  -0.0000000  -0.0000000  -0.0000000  -0.0000000  -0.0000000
 NQMom=    0.0000000   0.0000000   0.0000000   0.0000000   0.0000000   0.0000000   0.0000000   0.0000000   0.0000000   0.0000000
 NMagM=    0.0000000   0.0000000   2.7928460   2.7928460   2.7928460   0.0000000   2.7928460   0.0000000   2.7928460   2.7928460
 AtZNuc=   8.0000000   6.0000000   1.0000000   1.0000000   1.0000000   8.0000000   1.0000000   8.0000000   1.0000000   1.0000000

  Atom        21          22          23          24          25          26          27
 IAtWgt=           1          16           1           1           1          16           1
 AtmWgt=   1.0078250  15.9949146   1.0078250   1.0078250   1.0078250  15.9949146   1.0078250
 NucSpn=           1           0           1           1           1           0           1
 AtZEff=  -0.0000000  -0.0000000  -0.0000000  -0.0000000  -0.0000000  -0.0000000  -0.0000000
 NQMom=    0.0000000   0.0000000   0.0000000   0.0000000   0.0000000   0.0000000   0.0000000
 NMagM=    2.7928460   0.0000000   2.7928460   2.7928460   2.7928460   0.0000000   2.7928460
 AtZNuc=   1.0000000   8.0000000   1.0000000   1.0000000   1.0000000   8.0000000   1.0000000
 Leave Link  101 at Thu Jan  5 15:00:27 2023, MaxMem=  1342177280 cpu:               6.0 elap:               0.1
 (Enter /shared/gaussian/g16.b01/AVX2/g16/l103.exe)

 GradGradGradGradGradGradGradGradGradGradGradGradGradGradGradGradGradGrad
 Berny optimization.
 Initialization pass.
 Trust Radius=3.00D-01 FncErr=1.00D-07 GrdErr=1.00D-07 EigMax=2.50D+02 EigMin=1.00D-04
 Number of steps in this run=      2 maximum allowed number of steps=      2.
 GradGradGradGradGradGradGradGradGradGradGradGradGradGradGradGradGradGrad

 Leave Link  103 at Thu Jan  5 15:00:27 2023, MaxMem=  1342177280 cpu:               1.1 elap:               0.0
 (Enter /shared/gaussian/g16.b01/AVX2/g16/l202.exe)
                          Input orientation:                          
 ---------------------------------------------------------------------
 Center     Atomic      Atomic             Coordinates (Angstroms)
 Number     Number       Type             X           Y           Z
 ---------------------------------------------------------------------
      1          7           0       -0.231165   -0.035141   -0.187654
      2          6           0        1.096368   -0.361997   -0.138091
      3          7           0        1.943485    0.693041    0.000329
      4          6           0        1.507124    1.988439    0.094046
      5          6           0        0.203040    2.318540    0.062719
      6          6           0       -0.757961    1.241995   -0.079486
      7          1           0       -0.888783   -0.813428   -0.333259
      8          8           0        1.493654   -1.526624   -0.212117
      9          1           0        2.937877    0.460730    0.032007
     10          1           0        2.289814    2.727806    0.199297
     11          8           0       -1.975809    1.412395   -0.108376
     12          6           0       -0.298918    3.723573    0.170889
     13          1           0       -0.877521    4.000626   -0.712721
     14          1           0       -0.955053    3.837803    1.036180
     15          1           0        0.531929    4.421320    0.272664
     16          8           0       -2.156963   -2.189392   -0.545540
     17          1           0        0.535018   -3.051632    0.413739
     18          8           0        4.219759   -1.004202    0.052340
     19          1           0       -3.350109    0.329652    0.141206
     20          1           0       -2.956623   -1.696599   -0.248786
     21          1           0       -2.337462   -2.493339   -1.441344
     22          8           0       -0.116054   -3.712336    0.699184
     23          1           0       -0.953795   -3.345363    0.374927
     24          1           0        3.437732   -1.554817   -0.124989
     25          1           0        4.871171   -1.226960   -0.619765
     26          8           0       -4.008523   -0.394843    0.189792
     27          1           0       -4.416871   -0.344381    1.059404
 ---------------------------------------------------------------------
                    Distance matrix (angstroms):
                    1          2          3          4          5
     1  N    0.000000
     2  C    1.368077   0.000000
     3  N    2.301019   1.360100   0.000000
     4  C    2.682514   2.397323   1.370128   0.000000
     5  C    2.406457   2.832603   2.382286   1.345579   0.000000
     6  C    1.385746   2.452501   2.757813   2.391214   1.450067
     7  H    1.029268   2.045166   3.225286   3.711256   3.340374
     8  O    2.280377   1.232750   2.274729   3.528397   4.065280
     9  H    3.215115   2.024097   1.021659   2.093991   3.306317
    10  H    3.760178   3.329418   2.073596   1.081825   2.130910
    11  O    2.268354   3.547904   3.986245   3.536046   2.365958
    12  C    3.776384   4.328299   3.773803   2.505670   1.495921
    13  H    4.120787   4.822750   4.405296   3.222779   2.144372
    14  H    4.125709   4.819290   4.400459   3.220261   2.144054
    15  H    4.544695   4.833987   3.995838   2.627131   2.138674
    16  O    2.911628   3.753605   5.041832   5.593646   5.124553
    17  H    3.169847   2.802457   4.022097   5.142909   5.391862
    18  O    4.561513   3.194411   2.839853   4.039310   5.212941
    19  H    3.157378   4.508608   5.307922   5.132885   4.072678
    20  H    3.192538   4.268507   5.457426   5.798455   5.118774
    21  H    3.471450   4.246443   5.527924   6.101196   5.645399
    22  O    3.784375   3.660023   4.912987   5.958165   6.072757
    23  H    3.434569   3.656067   4.984302   5.880855   5.789261
    24  H    3.971668   2.627732   2.702100   4.041025   5.049887
    25  H    5.257469   3.902475   3.555596   4.707986   5.901508
    26  O    3.813172   5.115515   6.053576   6.009290   5.011572
    27  H    4.378461   5.641818   6.530851   6.439541   5.424768
                    6          7          8          9         10
     6  C    0.000000
     7  H    2.075158   0.000000
     8  O    3.571080   2.489845   0.000000
     9  H    3.779157   4.049719   2.468796   0.000000
    10  H    3.402100   4.788260   4.347793   2.363812   0.000000
    11  O    1.230051   2.487265   4.548161   5.006964   4.474428
    12  C    2.536067   4.602878   5.560987   4.598073   2.773787
    13  H    2.832901   4.828999   6.035194   5.257637   3.533250
    14  H    2.832274   4.849093   6.027561   5.250513   3.530103
    15  H    3.449048   5.457852   6.044664   4.640342   2.442034
    16  O    3.734813   1.883247   3.725243   5.771837   6.671390
    17  H    4.511131   2.755861   1.906916   4.272720   6.043773
    18  O    5.462644   5.126625   2.788281   1.946705   4.204066
    19  H    2.756865   2.754973   5.199292   6.290300   6.128886
    20  H    3.673978   2.250131   4.453673   6.283156   6.877590
    21  H    4.278107   2.479642   4.137993   6.223061   7.166850
    22  O    5.056062   3.172809   2.863384   5.214029   6.893005
    23  H    4.613967   2.629914   3.105228   5.454269   6.887324
    24  H    5.042625   4.394515   1.946234   2.082530   4.445642
    25  H    6.170475   5.781882   3.415201   2.647778   4.793166
    26  O    3.649370   3.190858   5.631732   7.000670   7.029941
    27  H    4.147443   3.821900   6.160257   7.469676   7.426826
                   11         12         13         14         15
    11  O    0.000000
    12  C    2.869058   0.000000
    13  H    2.875832   1.091928   0.000000
    14  H    2.869591   1.091920   1.758174   0.000000
    15  H    3.935425   1.089732   1.770457   1.770470   0.000000
    16  O    3.632740   6.239291   6.323072   6.346141   7.183391
    17  H    5.148242   6.830654   7.280008   7.076161   7.474284
    18  O    6.652130   6.540975   7.184420   7.154833   6.563911
    19  H    1.767293   4.563918   4.507653   4.341013   5.641742
    20  H    3.263059   6.051263   6.082456   6.023871   7.061929
    21  H    4.142747   6.738320   6.695812   6.937762   7.680087
    22  O    5.511235   7.456895   7.878013   7.604083   8.170567
    23  H    4.890231   7.102137   7.426463   7.213538   7.908173
    24  H    6.173415   6.473909   7.059021   7.051611   6.657029
    25  H    7.355872   7.201578   7.770699   7.895496   7.178337
    26  O    2.736227   5.542822   5.471549   5.287281   6.619516
    27  H    3.226260   5.856214   5.877628   5.429124   6.915308
                   16         17         18         19         20
    16  O    0.000000
    17  H    2.985035   0.000000
    18  O    6.513426   4.230827   0.000000
    19  H    2.870679   5.157671   7.687000   0.000000
    20  H    0.985071   3.803500   7.215993   2.100623   0.000000
    21  H    0.963031   3.464703   6.888089   3.391047   1.562162
    22  O    2.834432   0.970517   5.152831   5.206546   3.609803
    23  H    1.905555   1.518008   5.687773   4.393482   2.668101
    24  H    5.646252   3.310050   0.972722   7.049601   6.397125
    25  H    7.094114   4.816615   0.962125   8.401879   7.850640
    26  O    2.681304   5.268059   8.251960   0.980185   1.730148
    27  H    3.329729   5.680431   8.720144   1.560573   2.381634
                   21         22         23         24         25
    21  H    0.000000
    22  O    3.316997   0.000000
    23  H    2.437072   0.970372   0.000000
    24  H    5.997206   4.238342   4.768803   0.000000
    25  H    7.364991   5.726180   6.277521   1.551464   0.000000
    26  O    3.139544   5.139704   4.251024   7.542635   8.955265
    27  H    3.898167   5.474478   4.633281   8.035094   9.479783
                   26         27
    26  O    0.000000
    27  H    0.962039   0.000000
 Stoichiometry    C5H14N2O6
 Framework group  C1[X(C5H14N2O6)]
 Deg. of freedom    75
 Full point group                 C1      NOp   1
 Largest Abelian subgroup         C1      NOp   1
 Largest concise Abelian subgroup C1      NOp   1
                         Standard orientation:                         
 ---------------------------------------------------------------------
 Center     Atomic      Atomic             Coordinates (Angstroms)
 Number     Number       Type             X           Y           Z
 ---------------------------------------------------------------------
      1          7           0       -0.231165   -0.035141   -0.187654
      2          6           0        1.096368   -0.361997   -0.138091
      3          7           0        1.943485    0.693041    0.000329
      4          6           0        1.507124    1.988439    0.094046
      5          6           0        0.203040    2.318540    0.062719
      6          6           0       -0.757961    1.241995   -0.079486
      7          1           0       -0.888783   -0.813428   -0.333259
      8          8           0        1.493654   -1.526624   -0.212117
      9          1           0        2.937877    0.460731    0.032007
     10          1           0        2.289814    2.727806    0.199297
     11          8           0       -1.975809    1.412395   -0.108376
     12          6           0       -0.298919    3.723573    0.170889
     13          1           0       -0.877522    4.000626   -0.712721
     14          1           0       -0.955054    3.837803    1.036180
     15          1           0        0.531928    4.421320    0.272664
     16          8           0       -2.156963   -2.189392   -0.545540
     17          1           0        0.535019   -3.051632    0.413739
     18          8           0        4.219759   -1.004201    0.052340
     19          1           0       -3.350109    0.329651    0.141206
     20          1           0       -2.956623   -1.696600   -0.248786
     21          1           0       -2.337461   -2.493339   -1.441344
     22          8           0       -0.116053   -3.712336    0.699184
     23          1           0       -0.953794   -3.345363    0.374927
     24          1           0        3.437732   -1.554816   -0.124989
     25          1           0        4.871171   -1.226959   -0.619765
     26          8           0       -4.008523   -0.394844    0.189792
     27          1           0       -4.416871   -0.344382    1.059404
 ---------------------------------------------------------------------
 Rotational constants (GHZ):           0.6284335           0.5383142           0.2971763
 Leave Link  202 at Thu Jan  5 15:00:27 2023, MaxMem=  1342177280 cpu:               0.4 elap:               0.0
 (Enter /shared/gaussian/g16.b01/AVX2/g16/l301.exe)
 Standard basis: 6-311+G(d,p) (5D, 7F)
 Ernie: Thresh=  0.10000D-02 Tol=  0.10000D-05 Strict=F.
 There are   383 symmetry adapted cartesian basis functions of A   symmetry.
 There are   370 symmetry adapted basis functions of A   symmetry.
   370 basis functions,   580 primitive gaussians,   383 cartesian basis functions
    53 alpha electrons       53 beta electrons
       nuclear repulsion energy       873.8248456000 Hartrees.
 IExCor=20419 DFT=T Ex+Corr=CAM-B3LYP ExCW=0 ScaHFX=  1.000000
 ScaDFX=  1.000000  1.000000  1.000000  0.810000 ScalE2=  1.000000  1.000000
 IRadAn=      5 IRanWt=     -1 IRanGd=            0 ICorTp=0 IEmpDi=  4
 HFx  wShort=  0.000000 wLong=  0.330000 cFull=  0.190000 cShort=  0.000000 cLong=  0.460000
 DFx  wShort=  0.000000 wLong=  0.330000 cFull=  0.190000 cShort=  0.000000 cLong=  0.460000
 NAtoms=   27 NActive=   27 NUniq=   27 SFac= 1.00D+00 NAtFMM=   60 NAOKFM=F Big=F
 Integral buffers will be    131072 words long.
 Raffenetti 1 integral format.
 Two-electron integral symmetry is turned on.
 Force inversion solution in PCM.
 ------------------------------------------------------------------------------
 Polarizable Continuum Model (PCM)
 =================================
 Model                : PCM.
 Atomic radii         : UFF (Universal Force Field).
 Polarization charges : Total charges.
 Charge compensation  : None.
 Solution method      : Matrix inversion.
 Cavity type          : Scaled VdW (van der Waals Surface) (Alpha=1.100).
 Cavity algorithm     : GePol (No added spheres)
                        Default sphere list used, NSphG=   27.
                        Lebedev-Laikov grids with approx.  5.0 points / Ang**2.
                        Smoothing algorithm: York/Karplus (Gamma=1.0000).
                        Polarization charges: spherical gaussians, with
                                              point-specific exponents (IZeta= 3).
                        Self-potential: point-specific (ISelfS= 7).
                        Self-field    : sphere-specific E.n sum rule (ISelfD= 2).
 1st derivatives      : Analytical E(r).r(x)/FMM algorithm (CHGder, D1EAlg=3).
                        Cavity 1st derivative terms included.
 2nd derivatives      : Analytical E(r).r(xy)/FMM algorithm (CHGder, D2EAlg=3).
                        Cavity 2nd derivative terms included.
 Solvent              : Water, Eps=  78.355300 Eps(inf)=   1.777849
 ------------------------------------------------------------------------------
 GePol: Number of generator spheres                  =      27
 GePol: Total number of spheres                      =      27
 GePol: Number of exposed spheres                    =      27 (100.00%)
 GePol: Number of points                             =    2281
 GePol: Average weight of points                     =       0.12
 GePol: Minimum weight of points                     =   0.27D-09
 GePol: Maximum weight of points                     =    0.20577
 GePol: Number of points with low weight             =     148
 GePol: Fraction of low-weight points (<1% of avg)   =       6.49%
 GePol: Cavity surface area                          =    280.953 Ang**2
 GePol: Cavity volume                                =    278.556 Ang**3
 Leave Link  301 at Thu Jan  5 15:00:27 2023, MaxMem=  1342177280 cpu:               3.2 elap:               0.1
 (Enter /shared/gaussian/g16.b01/AVX2/g16/l302.exe)
 NPDir=0 NMtPBC=     1 NCelOv=     1 NCel=       1 NClECP=     1 NCelD=      1
         NCelK=      1 NCelE2=     1 NClLst=     1 CellRange=     0.0.
 One-electron integrals computed using PRISM.
 One-electron integral symmetry used in STVInt
 NBasis=   370 RedAO= T EigKep=  5.61D-06  NBF=   370
 NBsUse=   370 1.00D-06 EigRej= -1.00D+00 NBFU=   370
 Precomputing XC quadrature grid using
 IXCGrd= 4 IRadAn=           5 IRanWt=          -1 IRanGd=           0 AccXCQ= 0.00D+00.
 Generated NRdTot=       0 NPtTot=           0 NUsed=           0 NTot=          32
 NSgBfM=   381   381   381   381   381 MxSgAt=    27 MxSgA2=    27.
 Leave Link  302 at Thu Jan  5 15:00:27 2023, MaxMem=  1342177280 cpu:              16.9 elap:               0.4
 (Enter /shared/gaussian/g16.b01/AVX2/g16/l303.exe)
 DipDrv:  MaxL=1.
 Leave Link  303 at Thu Jan  5 15:00:27 2023, MaxMem=  1342177280 cpu:               2.4 elap:               0.1
 (Enter /shared/gaussian/g16.b01/AVX2/g16/l308.exe)
 Leave Link  308 at Thu Jan  5 15:00:28 2023, MaxMem=  1342177280 cpu:               3.0 elap:               0.1
 (Enter /shared/gaussian/g16.b01/AVX2/g16/l401.exe)
 ExpMin= 4.38D-02 ExpMax= 8.59D+03 ExpMxC= 1.30D+03 IAcc=3 IRadAn=         5 AccDes= 0.00D+00
 Harris functional with IExCor=20419 and IRadAn=       5 diagonalized for initial guess.
 HarFok:  IExCor=20419 AccDes= 0.00D+00 IRadAn=         5 IDoV= 1 UseB2=F ITyADJ=14
 ICtDFT=  3500011 ScaDFX=  1.000000  1.000000  1.000000  1.000000
 FoFCou: FMM=F IPFlag=           0 FMFlag=      100000 FMFlg1=           0
         NFxFlg=           0 DoJE=T BraDBF=F KetDBF=T FulRan=T
         wScrn=  0.000000 ICntrl=       500 IOpCl=  0 I1Cent=   200000004 NGrid=           0
         NMat0=    1 NMatS0=      1 NMatT0=    0 NMatD0=    1 NMtDS0=    0 NMtDT0=    0
 Petite list used in FoFCou.
 Harris En= -733.390347824989    
 JPrj=0 DoOrth=F DoCkMO=F.
 Leave Link  401 at Thu Jan  5 15:00:28 2023, MaxMem=  1342177280 cpu:              25.6 elap:               0.6
 (Enter /shared/gaussian/g16.b01/AVX2/g16/l502.exe)
 Integral symmetry usage will be decided dynamically.
 Closed shell SCF:
 Using DIIS extrapolation, IDIIS=  1040.
 NGot=  1342177280 LenX=  1341860947 LenY=  1341713817
 Requested convergence on RMS density matrix=1.00D-08 within 128 cycles.
 Requested convergence on MAX density matrix=1.00D-06.
 Requested convergence on             energy=1.00D-06.
 No special actions if energy rises.
 Fock matrices will be formed incrementally for  20 cycles.

 Cycle   1  Pass 1  IDiag  1:
 FoFJK:  IHMeth= 1 ICntrl=       0 DoSepK=T KAlg= 0 I1Cent=           0 FoldK=F
 IRaf=         1 NMat=       1 IRICut=       1 DoRegI=T DoRafI=F ISym2E= 0 IDoP0=0 IntGTp=1.
 FoFCou: FMM=F IPFlag=           0 FMFlag=      100000 FMFlg1=           0
         NFxFlg=           0 DoJE=T BraDBF=F KetDBF=F FulRan=T
         wScrn=  0.000000 ICntrl=       500 IOpCl=  0 I1Cent=           0 NGrid=           0
         NMat0=    1 NMatS0=      1 NMatT0=    0 NMatD0=    1 NMtDS0=    0 NMtDT0=    0
 Symmetry not used in FoFCou.
 Inv3:  Mode=1 IEnd=    15608883.
 Iteration    1 A*A^-1 deviation from unit magnitude is 3.11D-15 for   1261.
 Iteration    1 A*A^-1 deviation from orthogonality  is 1.91D-15 for    921    221.
 Iteration    1 A^-1*A deviation from unit magnitude is 3.33D-15 for   1630.
 Iteration    1 A^-1*A deviation from orthogonality  is 8.44D-14 for   1458   1357.
 E= -759.733593705006    
 DIIS: error= 5.40D-02 at cycle   1 NSaved=   1.
 NSaved= 1 IEnMin= 1 EnMin= -759.733593705006     IErMin= 1 ErrMin= 5.40D-02
 ErrMax= 5.40D-02  0.00D+00 EMaxC= 1.00D-01 BMatC= 1.14D+00 BMatP= 1.14D+00
 IDIUse=3 WtCom= 4.60D-01 WtEn= 5.40D-01
 Coeff-Com:  0.100D+01
 Coeff-En:   0.100D+01
 Coeff:      0.100D+01
 Gap=     0.309 Goal=   None    Shift=    0.000
 GapD=    0.309 DampG=1.000 DampE=0.500 DampFc=0.5000 IDamp=-1.
 Damping current iteration by 5.00D-01
 RMSDP=8.48D-03 MaxDP=1.43D+00              OVMax= 1.29D-01

 Cycle   2  Pass 1  IDiag  1:
 RMSU=  2.89D-03    CP:  8.66D-01
 E= -759.810862702383     Delta-E=       -0.077268997377 Rises=F Damp=T
 DIIS: error= 2.57D-02 at cycle   2 NSaved=   2.
 NSaved= 2 IEnMin= 2 EnMin= -759.810862702383     IErMin= 2 ErrMin= 2.57D-02
 ErrMax= 2.57D-02  0.00D+00 EMaxC= 1.00D-01 BMatC= 2.38D-01 BMatP= 1.14D+00
 IDIUse=3 WtCom= 7.43D-01 WtEn= 2.57D-01
 Coeff-Com: -0.682D+00 0.168D+01
 Coeff-En:   0.000D+00 0.100D+01
 Coeff:     -0.507D+00 0.151D+01
 Gap=     0.336 Goal=   None    Shift=    0.000
 RMSDP=4.19D-03 MaxDP=5.56D-01 DE=-7.73D-02 OVMax= 1.08D-01

 Cycle   3  Pass 1  IDiag  1:
 RMSU=  1.84D-03    CP:  7.26D-01  1.66D+00
 E= -759.859758548458     Delta-E=       -0.048895846075 Rises=F Damp=F
 DIIS: error= 1.06D-02 at cycle   3 NSaved=   3.
 NSaved= 3 IEnMin= 3 EnMin= -759.859758548458     IErMin= 3 ErrMin= 1.06D-02
 ErrMax= 1.06D-02  0.00D+00 EMaxC= 1.00D-01 BMatC= 3.67D-02 BMatP= 2.38D-01
 IDIUse=3 WtCom= 8.94D-01 WtEn= 1.06D-01
 Coeff-Com: -0.356D+00 0.767D+00 0.588D+00
 Coeff-En:   0.000D+00 0.000D+00 0.100D+01
 Coeff:     -0.318D+00 0.686D+00 0.632D+00
 Gap=     0.303 Goal=   None    Shift=    0.000
 RMSDP=1.02D-03 MaxDP=9.73D-02 DE=-4.89D-02 OVMax= 5.64D-02

 Cycle   4  Pass 1  IDiag  1:
 RMSU=  4.46D-04    CP:  7.21D-01  1.89D+00  6.61D-01
 E= -759.888183527547     Delta-E=       -0.028424979089 Rises=F Damp=F
 DIIS: error= 3.46D-03 at cycle   4 NSaved=   4.
 NSaved= 4 IEnMin= 4 EnMin= -759.888183527547     IErMin= 4 ErrMin= 3.46D-03
 ErrMax= 3.46D-03  0.00D+00 EMaxC= 1.00D-01 BMatC= 3.69D-03 BMatP= 3.67D-02
 IDIUse=3 WtCom= 9.65D-01 WtEn= 3.46D-02
 Coeff-Com: -0.170D+00 0.361D+00 0.364D+00 0.445D+00
 Coeff-En:   0.000D+00 0.000D+00 0.000D+00 0.100D+01
 Coeff:     -0.164D+00 0.348D+00 0.351D+00 0.464D+00
 Gap=     0.300 Goal=   None    Shift=    0.000
 RMSDP=3.37D-04 MaxDP=4.01D-02 DE=-2.84D-02 OVMax= 1.26D-02

 Cycle   5  Pass 1  IDiag  1:
 RMSU=  1.52D-04    CP:  7.13D-01  1.87D+00  7.56D-01  6.78D-01
 E= -759.890781028156     Delta-E=       -0.002597500609 Rises=F Damp=F
 DIIS: error= 5.77D-04 at cycle   5 NSaved=   5.
 NSaved= 5 IEnMin= 5 EnMin= -759.890781028156     IErMin= 5 ErrMin= 5.77D-04
 ErrMax= 5.77D-04  0.00D+00 EMaxC= 1.00D-01 BMatC= 7.77D-05 BMatP= 3.69D-03
 IDIUse=3 WtCom= 9.94D-01 WtEn= 5.77D-03
 Coeff-Com: -0.344D-01 0.723D-01 0.889D-01 0.185D+00 0.688D+00
 Coeff-En:   0.000D+00 0.000D+00 0.000D+00 0.000D+00 0.100D+01
 Coeff:     -0.343D-01 0.719D-01 0.884D-01 0.184D+00 0.690D+00
 Gap=     0.300 Goal=   None    Shift=    0.000
 RMSDP=8.41D-05 MaxDP=7.31D-03 DE=-2.60D-03 OVMax= 3.82D-03

 Cycle   6  Pass 1  IDiag  1:
 RMSU=  4.24D-05    CP:  7.12D-01  1.89D+00  7.66D-01  7.79D-01  9.47D-01
 E= -759.890843246601     Delta-E=       -0.000062218444 Rises=F Damp=F
 DIIS: error= 2.59D-04 at cycle   6 NSaved=   6.
 NSaved= 6 IEnMin= 6 EnMin= -759.890843246601     IErMin= 6 ErrMin= 2.59D-04
 ErrMax= 2.59D-04  0.00D+00 EMaxC= 1.00D-01 BMatC= 1.39D-05 BMatP= 7.77D-05
 IDIUse=3 WtCom= 9.97D-01 WtEn= 2.59D-03
 Coeff-Com:  0.130D-01-0.279D-01-0.204D-01 0.961D-03 0.331D+00 0.703D+00
 Coeff-En:   0.000D+00 0.000D+00 0.000D+00 0.000D+00 0.000D+00 0.100D+01
 Coeff:      0.129D-01-0.278D-01-0.204D-01 0.959D-03 0.331D+00 0.704D+00
 Gap=     0.300 Goal=   None    Shift=    0.000
 RMSDP=4.13D-05 MaxDP=4.75D-03 DE=-6.22D-05 OVMax= 2.03D-03

 Cycle   7  Pass 1  IDiag  1:
 RMSU=  1.54D-05    CP:  7.10D-01  1.89D+00  7.74D-01  7.90D-01  1.05D+00
                    CP:  9.48D-01
 E= -759.890858596097     Delta-E=       -0.000015349497 Rises=F Damp=F
 DIIS: error= 6.25D-05 at cycle   7 NSaved=   7.
 NSaved= 7 IEnMin= 7 EnMin= -759.890858596097     IErMin= 7 ErrMin= 6.25D-05
 ErrMax= 6.25D-05  0.00D+00 EMaxC= 1.00D-01 BMatC= 1.42D-06 BMatP= 1.39D-05
 IDIUse=1 WtCom= 1.00D+00 WtEn= 0.00D+00
 Coeff-Com:  0.898D-02-0.190D-01-0.182D-01-0.258D-01 0.505D-01 0.270D+00
 Coeff-Com:  0.733D+00
 Coeff:      0.898D-02-0.190D-01-0.182D-01-0.258D-01 0.505D-01 0.270D+00
 Coeff:      0.733D+00
 Gap=     0.300 Goal=   None    Shift=    0.000
 RMSDP=1.17D-05 MaxDP=1.30D-03 DE=-1.53D-05 OVMax= 5.88D-04

 Cycle   8  Pass 1  IDiag  1:
 RMSU=  5.29D-06    CP:  7.10D-01  1.89D+00  7.76D-01  7.94D-01  1.09D+00
                    CP:  1.02D+00  1.09D+00
 E= -759.890860482118     Delta-E=       -0.000001886021 Rises=F Damp=F
 DIIS: error= 3.66D-05 at cycle   8 NSaved=   8.
 NSaved= 8 IEnMin= 8 EnMin= -759.890860482118     IErMin= 8 ErrMin= 3.66D-05
 ErrMax= 3.66D-05  0.00D+00 EMaxC= 1.00D-01 BMatC= 2.47D-07 BMatP= 1.42D-06
 IDIUse=1 WtCom= 1.00D+00 WtEn= 0.00D+00
 Coeff-Com:  0.126D-02-0.261D-02-0.374D-02-0.130D-01-0.341D-01-0.977D-03
 Coeff-Com:  0.308D+00 0.745D+00
 Coeff:      0.126D-02-0.261D-02-0.374D-02-0.130D-01-0.341D-01-0.977D-03
 Coeff:      0.308D+00 0.745D+00
 Gap=     0.300 Goal=   None    Shift=    0.000
 RMSDP=5.52D-06 MaxDP=5.00D-04 DE=-1.89D-06 OVMax= 4.24D-04

 Cycle   9  Pass 1  IDiag  1:
 RMSU=  3.03D-06    CP:  7.10D-01  1.89D+00  7.76D-01  7.94D-01  1.11D+00
                    CP:  1.04D+00  1.25D+00  1.08D+00
 E= -759.890860832662     Delta-E=       -0.000000350544 Rises=F Damp=F
 DIIS: error= 1.50D-05 at cycle   9 NSaved=   9.
 NSaved= 9 IEnMin= 9 EnMin= -759.890860832662     IErMin= 9 ErrMin= 1.50D-05
 ErrMax= 1.50D-05  0.00D+00 EMaxC= 1.00D-01 BMatC= 3.56D-08 BMatP= 2.47D-07
 IDIUse=1 WtCom= 1.00D+00 WtEn= 0.00D+00
 Coeff-Com: -0.995D-03 0.213D-02 0.152D-02-0.162D-02-0.189D-01-0.389D-01
 Coeff-Com:  0.798D-02 0.305D+00 0.744D+00
 Coeff:     -0.995D-03 0.213D-02 0.152D-02-0.162D-02-0.189D-01-0.389D-01
 Coeff:      0.798D-02 0.305D+00 0.744D+00
 Gap=     0.300 Goal=   None    Shift=    0.000
 RMSDP=1.80D-06 MaxDP=1.76D-04 DE=-3.51D-07 OVMax= 1.80D-04

 Cycle  10  Pass 1  IDiag  1:
 RMSU=  8.45D-07    CP:  7.10D-01  1.89D+00  7.76D-01  7.93D-01  1.11D+00
                    CP:  1.05D+00  1.28D+00  1.21D+00  1.10D+00
 E= -759.890860881254     Delta-E=       -0.000000048591 Rises=F Damp=F
 DIIS: error= 4.68D-06 at cycle  10 NSaved=  10.
 NSaved=10 IEnMin=10 EnMin= -759.890860881254     IErMin=10 ErrMin= 4.68D-06
 ErrMax= 4.68D-06  0.00D+00 EMaxC= 1.00D-01 BMatC= 7.56D-09 BMatP= 3.56D-08
 IDIUse=1 WtCom= 1.00D+00 WtEn= 0.00D+00
 Coeff-Com: -0.592D-03 0.125D-02 0.117D-02 0.104D-02-0.268D-02-0.179D-01
 Coeff-Com: -0.548D-01 0.128D-01 0.366D+00 0.694D+00
 Coeff:     -0.592D-03 0.125D-02 0.117D-02 0.104D-02-0.268D-02-0.179D-01
 Coeff:     -0.548D-01 0.128D-01 0.366D+00 0.694D+00
 Gap=     0.300 Goal=   None    Shift=    0.000
 RMSDP=8.07D-07 MaxDP=5.90D-05 DE=-4.86D-08 OVMax= 5.27D-05

 Cycle  11  Pass 1  IDiag  1:
 RMSU=  3.63D-07    CP:  7.10D-01  1.89D+00  7.76D-01  7.92D-01  1.11D+00
                    CP:  1.05D+00  1.30D+00  1.24D+00  1.23D+00  9.79D-01
 E= -759.890860890388     Delta-E=       -0.000000009134 Rises=F Damp=F
 DIIS: error= 2.03D-06 at cycle  11 NSaved=  11.
 NSaved=11 IEnMin=11 EnMin= -759.890860890388     IErMin=11 ErrMin= 2.03D-06
 ErrMax= 2.03D-06  0.00D+00 EMaxC= 1.00D-01 BMatC= 3.73D-10 BMatP= 7.56D-09
 IDIUse=1 WtCom= 1.00D+00 WtEn= 0.00D+00
 Coeff-Com: -0.963D-04 0.203D-03 0.236D-03 0.446D-03 0.936D-03-0.252D-02
 Coeff-Com: -0.218D-01-0.184D-01 0.741D-01 0.214D+00 0.753D+00
 Coeff:     -0.963D-04 0.203D-03 0.236D-03 0.446D-03 0.936D-03-0.252D-02
 Coeff:     -0.218D-01-0.184D-01 0.741D-01 0.214D+00 0.753D+00
 Gap=     0.300 Goal=   None    Shift=    0.000
 RMSDP=2.13D-07 MaxDP=1.92D-05 DE=-9.13D-09 OVMax= 2.07D-05

 Cycle  12  Pass 1  IDiag  1:
 RMSU=  1.00D-07    CP:  7.10D-01  1.89D+00  7.76D-01  7.92D-01  1.11D+00
                    CP:  1.05D+00  1.31D+00  1.24D+00  1.25D+00  1.04D+00
                    CP:  1.10D+00
 E= -759.890860890957     Delta-E=       -0.000000000569 Rises=F Damp=F
 DIIS: error= 4.80D-07 at cycle  12 NSaved=  12.
 NSaved=12 IEnMin=12 EnMin= -759.890860890957     IErMin=12 ErrMin= 4.80D-07
 ErrMax= 4.80D-07  0.00D+00 EMaxC= 1.00D-01 BMatC= 1.06D-10 BMatP= 3.73D-10
 IDIUse=1 WtCom= 1.00D+00 WtEn= 0.00D+00
 Coeff-Com:  0.412D-04-0.884D-04-0.541D-04 0.753D-04 0.893D-03 0.183D-02
 Coeff-Com: -0.162D-02-0.943D-02-0.281D-01-0.396D-01 0.338D+00 0.738D+00
 Coeff:      0.412D-04-0.884D-04-0.541D-04 0.753D-04 0.893D-03 0.183D-02
 Coeff:     -0.162D-02-0.943D-02-0.281D-01-0.396D-01 0.338D+00 0.738D+00
 Gap=     0.300 Goal=   None    Shift=    0.000
 RMSDP=9.52D-08 MaxDP=7.04D-06 DE=-5.69D-10 OVMax= 6.47D-06

 Cycle  13  Pass 1  IDiag  1:
 RMSU=  3.91D-08    CP:  7.10D-01  1.89D+00  7.76D-01  7.92D-01  1.11D+00
                    CP:  1.05D+00  1.31D+00  1.25D+00  1.27D+00  1.06D+00
                    CP:  1.22D+00  1.12D+00
 E= -759.890860891102     Delta-E=       -0.000000000145 Rises=F Damp=F
 DIIS: error= 1.76D-07 at cycle  13 NSaved=  13.
 NSaved=13 IEnMin=13 EnMin= -759.890860891102     IErMin=13 ErrMin= 1.76D-07
 ErrMax= 1.76D-07  0.00D+00 EMaxC= 1.00D-01 BMatC= 4.85D-12 BMatP= 1.06D-10
 IDIUse=1 WtCom= 1.00D+00 WtEn= 0.00D+00
 Coeff-Com:  0.190D-04-0.403D-04-0.349D-04-0.250D-04 0.117D-03 0.719D-03
 Coeff-Com:  0.156D-02-0.292D-04-0.140D-01-0.322D-01 0.202D-01 0.154D+00
 Coeff-Com:  0.869D+00
 Coeff:      0.190D-04-0.403D-04-0.349D-04-0.250D-04 0.117D-03 0.719D-03
 Coeff:      0.156D-02-0.292D-04-0.140D-01-0.322D-01 0.202D-01 0.154D+00
 Coeff:      0.869D+00
 Gap=     0.300 Goal=   None    Shift=    0.000
 RMSDP=2.65D-08 MaxDP=2.01D-06 DE=-1.45D-10 OVMax= 2.34D-06

 Cycle  14  Pass 1  IDiag  1:
 RMSU=  1.44D-08    CP:  7.10D-01  1.89D+00  7.76D-01  7.92D-01  1.11D+00
                    CP:  1.05D+00  1.31D+00  1.25D+00  1.27D+00  1.07D+00
                    CP:  1.26D+00  1.17D+00  1.19D+00
 E= -759.890860891105     Delta-E=       -0.000000000003 Rises=F Damp=F
 DIIS: error= 8.23D-08 at cycle  14 NSaved=  14.
 NSaved=14 IEnMin=14 EnMin= -759.890860891105     IErMin=14 ErrMin= 8.23D-08
 ErrMax= 8.23D-08  0.00D+00 EMaxC= 1.00D-01 BMatC= 1.37D-12 BMatP= 4.85D-12
 IDIUse=1 WtCom= 1.00D+00 WtEn= 0.00D+00
 Coeff-Com:  0.244D-05-0.500D-05-0.753D-05-0.214D-04-0.781D-04 0.613D-04
 Coeff-Com:  0.825D-03 0.142D-02-0.168D-02-0.732D-02-0.371D-01-0.506D-01
 Coeff-Com:  0.375D+00 0.720D+00
 Coeff:      0.244D-05-0.500D-05-0.753D-05-0.214D-04-0.781D-04 0.613D-04
 Coeff:      0.825D-03 0.142D-02-0.168D-02-0.732D-02-0.371D-01-0.506D-01
 Coeff:      0.375D+00 0.720D+00
 Gap=     0.300 Goal=   None    Shift=    0.000
 RMSDP=9.04D-09 MaxDP=6.09D-07 DE=-2.50D-12 OVMax= 8.46D-07

 Error on total polarization charges =  0.01625
 SCF Done:  E(RCAM-B3LYP) =  -759.890860891     A.U. after   14 cycles
            NFock= 14  Conv=0.90D-08     -V/T= 2.0031
 KE= 7.575792157718D+02 PE=-3.532496864760D+03 EE= 1.141201942497D+03
 Leave Link  502 at Thu Jan  5 15:00:50 2023, MaxMem=  1342177280 cpu:            1058.1 elap:              22.0
 (Enter /shared/gaussian/g16.b01/AVX2/g16/l801.exe)
 DoSCS=F DFT=T ScalE2(SS,OS)=  1.000000  1.000000
 ExpMin= 4.38D-02 ExpMax= 8.59D+03 ExpMxC= 1.30D+03 IAcc=3 IRadAn=         5 AccDes= 0.00D+00
 HarFok:  IExCor=  205 AccDes= 0.00D+00 IRadAn=         5 IDoV=-2 UseB2=F ITyADJ=14
 ICtDFT= 12500011 ScaDFX=  1.000000  1.000000  1.000000  1.000000
 Largest valence mixing into a core orbital is  4.85D-05
 Largest core mixing into a valence orbital is  1.01D-05
 Range of M.O.s used for correlation:    14   370
 NBasis=   370 NAE=    53 NBE=    53 NFC=    13 NFV=     0
 NROrb=    357 NOA=    40 NOB=    40 NVA=   317 NVB=   317

 **** Warning!!: The largest alpha MO coefficient is  0.12208706D+03

 Leave Link  801 at Thu Jan  5 15:00:50 2023, MaxMem=  1342177280 cpu:               3.0 elap:               0.1
 (Enter /shared/gaussian/g16.b01/AVX2/g16/l914.exe)
 RHF ground state
 Two-electron integrals replicated using symmetry.
 MDV=  1342177280 DFT=T DoStab=F Mixed=T DoRPA=T DoScal=F NonHer=T
 NEqPCM:  Using equilibrium solvation (IEInf=0, Eps=  78.3553, EpsInf=   1.7778)
 Making orbital integer symmetry assigments:
 Orbital symmetries:
       Occupied  (A) (A) (A) (A) (A) (A) (A) (A) (A) (A) (A) (A)
                 (A) (A) (A) (A) (A) (A) (A) (A) (A) (A) (A) (A)
                 (A) (A) (A) (A) (A) (A) (A) (A) (A) (A) (A) (A)
                 (A) (A) (A) (A) (A) (A) (A) (A) (A) (A) (A) (A)
                 (A) (A) (A) (A) (A)
       Virtual   (A) (A) (A) (A) (A) (A) (A) (A) (A) (A) (A) (A)
                 (A) (A) (A) (A) (A) (A) (A) (A) (A) (A) (A) (A)
                 (A) (A) (A) (A) (A) (A) (A) (A) (A) (A) (A) (A)
                 (A) (A) (A) (A) (A) (A) (A) (A) (A) (A) (A) (A)
                 (A) (A) (A) (A) (A) (A) (A) (A) (A) (A) (A) (A)
                 (A) (A) (A) (A) (A) (A) (A) (A) (A) (A) (A) (A)
                 (A) (A) (A) (A) (A) (A) (A) (A) (A) (A) (A) (A)
                 (A) (A) (A) (A) (A) (A) (A) (A) (A) (A) (A) (A)
                 (A) (A) (A) (A) (A) (A) (A) (A) (A) (A) (A) (A)
                 (A) (A) (A) (A) (A) (A) (A) (A) (A) (A) (A) (A)
                 (A) (A) (A) (A) (A) (A) (A) (A) (A) (A) (A) (A)
                 (A) (A) (A) (A) (A) (A) (A) (A) (A) (A) (A) (A)
                 (A) (A) (A) (A) (A) (A) (A) (A) (A) (A) (A) (A)
                 (A) (A) (A) (A) (A) (A) (A) (A) (A) (A) (A) (A)
                 (A) (A) (A) (A) (A) (A) (A) (A) (A) (A) (A) (A)
                 (A) (A) (A) (A) (A) (A) (A) (A) (A) (A) (A) (A)
                 (A) (A) (A) (A) (A) (A) (A) (A) (A) (A) (A) (A)
                 (A) (A) (A) (A) (A) (A) (A) (A) (A) (A) (A) (A)
                 (A) (A) (A) (A) (A) (A) (A) (A) (A) (A) (A) (A)
                 (A) (A) (A) (A) (A) (A) (A) (A) (A) (A) (A) (A)
                 (A) (A) (A) (A) (A) (A) (A) (A) (A) (A) (A) (A)
                 (A) (A) (A) (A) (A) (A) (A) (A) (A) (A) (A) (A)
                 (A) (A) (A) (A) (A) (A) (A) (A) (A) (A) (A) (A)
                 (A) (A) (A) (A) (A) (A) (A) (A) (A) (A) (A) (A)
                 (A) (A) (A) (A) (A) (A) (A) (A) (A) (A) (A) (A)
                 (A) (A) (A) (A) (A) (A) (A) (A) (A) (A) (A) (A)
                 (A) (A) (A) (A) (A)
    40 initial guesses have been made.
 Convergence on wavefunction:    0.000001000000000
 Davidson Disk Diagonalization:  ConvIn= 1.00D-06 SkipCon=T Conv= 1.00D-06.
 Max sub-space:  2000 roots to seek:    40 dimension of matrix:        25360
 Iteration     1 Dimension    40 NMult     0 NNew     40
 CISAX will form    40 AO SS matrices at one time.
 NMat=    40 NSing=    40 JSym2X= 0.
 FoFJK:  IHMeth= 1 ICntrl=       0 DoSepK=T KAlg= 0 I1Cent=           0 FoldK=F
 IRaf=         1 NMat=      80 IRICut=       1 DoRegI=T DoRafI=F ISym2E= 0 IDoP0=3 IntGTp=3.
 FoFCou: FMM=F IPFlag=           0 FMFlag=      100000 FMFlg1=           0
         NFxFlg=           0 DoJE=F BraDBF=F KetDBF=F FulRan=T
         wScrn=  0.000000 ICntrl=       500 IOpCl=  0 I1Cent=           0 NGrid=           0
         NMat0=   40 NMatS0=     40 NMatT0=    0 NMatD0=   40 NMtDS0=    0 NMtDT0=    0
 Symmetry not used in FoFCou.
 New state      2 was old state      6
 New state      3 was old state      2
 New state      4 was old state      3
 New state      5 was old state     17
 New state      6 was old state      4
 New state      7 was old state      5
 New state      9 was old state     11
 New state     10 was old state      9
 Excitation Energies [eV] at current iteration:
 Root      1 :     5.754462552794579
 Root      2 :     5.792361153224038
 Root      3 :     6.599453229193494
 Root      4 :     6.925845213996092
 Root      5 :     7.225178051049505
 Root      6 :     7.275747947810059
 Root      7 :     7.384530875326165
 Root      8 :     7.515559441501403
 Root      9 :     7.568016619216842
 Root     10 :     7.685958456893148
 Root     11 :     7.990380310476144
 Root     12 :     8.054910815543812
 Root     13 :     8.087272311232727
 Root     14 :     8.128439599335406
 Root     15 :     8.160313576821062
 Root     16 :     8.271210308251197
 Root     17 :     8.386844459042097
 Root     18 :     8.463256039365019
 Root     19 :     8.519961987203367
 Root     20 :     8.529066724935598
 Root     21 :     8.582175161606440
 Root     22 :     8.608489605046570
 Root     23 :     8.643204522438127
 Root     24 :     8.737198582479390
 Root     25 :     8.776397606165013
 Root     26 :     8.816423516890875
 Root     27 :     8.963413181901098
 Root     28 :     9.067325040674536
 Root     29 :     9.147620046875604
 Root     30 :     9.193696616435195
 Root     31 :     9.213674520147434
 Root     32 :     9.258837459437750
 Root     33 :     9.267883822105082
 Root     34 :     9.416471633404843
 Root     35 :     9.491762560436593
 Root     36 :     9.515878182852406
 Root     37 :     9.565239216824311
 Root     38 :     9.647288451369812
 Root     39 :     9.928546197119173
 Root     40 :     9.956515781693088
 Iteration     2 Dimension    60 NMult    40 NNew     20
 CISAX will form    20 AO SS matrices at one time.
 NMat=    20 NSing=    20 JSym2X= 0.
 Root      1 not converged, maximum delta is    0.055224633936213
 Root      2 not converged, maximum delta is    0.069523557428126
 New state      3 was old state      4
 Root      3 not converged, maximum delta is    0.120550459829243
 New state      4 was old state      3
 Root      4 not converged, maximum delta is    0.038679002638649
 New state      5 was old state      8
 Root      5 not converged, maximum delta is    0.149075401498708
 New state      6 was old state      5
 Root      6 not converged, maximum delta is    0.134531643873310
 New state      7 was old state      6
 Root      7 not converged, maximum delta is    0.068860029047543
 New state      8 was old state      7
 Root      8 not converged, maximum delta is    0.052734703523000
 Root      9 not converged, maximum delta is    0.129207662180827
 Root     10 not converged, maximum delta is    0.086568478700838
 Excitation Energies [eV] at current iteration:
 Root      1 :     5.080022155763212   Change is   -0.674440397031368
 Root      2 :     5.541822780898318   Change is   -0.250538372325719
 Root      3 :     6.306812201773813   Change is   -0.619033012222279
 Root      4 :     6.482984143542494   Change is   -0.116469085651001
 Root      5 :     6.798369152318365   Change is   -0.717190289183038
 Root      6 :     6.825402070649380   Change is   -0.399775980400125
 Root      7 :     7.139051606491848   Change is   -0.136696341318210
 Root      8 :     7.258699252179048   Change is   -0.125831623147117
 Root      9 :     7.422020765650584   Change is   -0.145995853566259
 Root     10 :     7.538663518822602   Change is   -0.147294938070546
 Iteration     3 Dimension    80 NMult    60 NNew     20
 CISAX will form    20 AO SS matrices at one time.
 NMat=    20 NSing=    20 JSym2X= 0.
 Root      1 not converged, maximum delta is    0.017916410837143
 Root      2 not converged, maximum delta is    0.008670022079461
 Root      3 not converged, maximum delta is    0.010732670682849
 Root      4 not converged, maximum delta is    0.003410328963058
 Root      5 not converged, maximum delta is    0.027086151112256
 Root      6 not converged, maximum delta is    0.034417875233959
 Root      7 not converged, maximum delta is    0.007061751342132
 Root      8 not converged, maximum delta is    0.008016678312979
 Root      9 not converged, maximum delta is    0.030573882677746
 Root     10 not converged, maximum delta is    0.064286062739330
 Excitation Energies [eV] at current iteration:
 Root      1 :     5.037763081568873   Change is   -0.042259074194338
 Root      2 :     5.534290633933040   Change is   -0.007532146965279
 Root      3 :     6.276443415182144   Change is   -0.030368786591668
 Root      4 :     6.481184655181679   Change is   -0.001799488360814
 Root      5 :     6.767296433158704   Change is   -0.031072719159662
 Root      6 :     6.792997014795096   Change is   -0.032405055854284
 Root      7 :     7.134158424882212   Change is   -0.004893181609636
 Root      8 :     7.253932196014748   Change is   -0.004767056164301
 Root      9 :     7.402148975148135   Change is   -0.019871790502448
 Root     10 :     7.526363946089364   Change is   -0.012299572733238
 Iteration     4 Dimension   100 NMult    80 NNew     20
 CISAX will form    20 AO SS matrices at one time.
 NMat=    20 NSing=    20 JSym2X= 0.
 Root      1 not converged, maximum delta is    0.002463764448828
 Root      2 not converged, maximum delta is    0.001932460267354
 Root      3 not converged, maximum delta is    0.004150797058385
 Root      4 not converged, maximum delta is    0.000443936741780
 Root      5 not converged, maximum delta is    0.003163683083682
 Root      6 not converged, maximum delta is    0.007738295634367
 Root      7 not converged, maximum delta is    0.001232186242446
 Root      8 not converged, maximum delta is    0.001802727868236
 Root      9 not converged, maximum delta is    0.013933360252058
 Root     10 not converged, maximum delta is    0.077630786300546
 Excitation Energies [eV] at current iteration:
 Root      1 :     5.034869648877744   Change is   -0.002893432691129
 Root      2 :     5.533451899714944   Change is   -0.000838734218095
 Root      3 :     6.272827533106259   Change is   -0.003615882075886
 Root      4 :     6.481115415504660   Change is   -0.000069239677019
 Root      5 :     6.764301929802375   Change is   -0.002994503356328
 Root      6 :     6.790212872592440   Change is   -0.002784142202657
 Root      7 :     7.133905227402141   Change is   -0.000253197480072
 Root      8 :     7.253593747694001   Change is   -0.000338448320747
 Root      9 :     7.399020704838687   Change is   -0.003128270309448
 Root     10 :     7.518373955060897   Change is   -0.007989991028466
 Iteration     5 Dimension   120 NMult   100 NNew     20
 CISAX will form    20 AO SS matrices at one time.
 NMat=    20 NSing=    20 JSym2X= 0.
 Root      1 not converged, maximum delta is    0.000503891382084
 Root      2 not converged, maximum delta is    0.000232976829388
 Root      3 not converged, maximum delta is    0.000836140961758
 Root      4 not converged, maximum delta is    0.000114935198430
 Root      5 not converged, maximum delta is    0.001187772580972
 Root      6 not converged, maximum delta is    0.001047688046811
 Root      7 not converged, maximum delta is    0.000598886113284
 Root      8 not converged, maximum delta is    0.000568521166841
 Root      9 not converged, maximum delta is    0.001988118887604
 Root     10 not converged, maximum delta is    0.023333845488252
 Excitation Energies [eV] at current iteration:
 Root      1 :     5.034712618518772   Change is   -0.000157030358971
 Root      2 :     5.533422181871556   Change is   -0.000029717843388
 Root      3 :     6.272571670109265   Change is   -0.000255862996994
 Root      4 :     6.481110864406391   Change is   -0.000004551098269
 Root      5 :     6.763971775406346   Change is   -0.000330154396030
 Root      6 :     6.790045538164049   Change is   -0.000167334428390
 Root      7 :     7.133882879134044   Change is   -0.000022348268098
 Root      8 :     7.253559419108174   Change is   -0.000034328585827
 Root      9 :     7.398801334368233   Change is   -0.000219370470455
 Root     10 :     7.516155181629142   Change is   -0.002218773431755
 Iteration     6 Dimension   140 NMult   120 NNew     20
 CISAX will form    20 AO SS matrices at one time.
 NMat=    20 NSing=    20 JSym2X= 0.
 Root      1 not converged, maximum delta is    0.000118299663729
 Root      2 not converged, maximum delta is    0.000047038705140
 Root      3 not converged, maximum delta is    0.000422631397852
 Root      4 not converged, maximum delta is    0.000047358803279
 Root      5 not converged, maximum delta is    0.000700773592456
 Root      6 not converged, maximum delta is    0.000148923068514
 Root      7 not converged, maximum delta is    0.000249783613960
 Root      8 not converged, maximum delta is    0.000404485803368
 Root      9 not converged, maximum delta is    0.000372054338388
 Root     10 not converged, maximum delta is    0.003475686068213
 Excitation Energies [eV] at current iteration:
 Root      1 :     5.034705404041569   Change is   -0.000007214477203
 Root      2 :     5.533421078364899   Change is   -0.000001103506657
 Root      3 :     6.272552232211152   Change is   -0.000019437898113
 Root      4 :     6.481110502644285   Change is   -0.000000361762107
 Root      5 :     6.763935395481129   Change is   -0.000036379925217
 Root      6 :     6.790033479814799   Change is   -0.000012058349250
 Root      7 :     7.133879301069057   Change is   -0.000003578064987
 Root      8 :     7.253552455083819   Change is   -0.000006964024355
 Root      9 :     7.398785080382945   Change is   -0.000016253985288
 Root     10 :     7.515866903036915   Change is   -0.000288278592228
 Iteration     7 Dimension   160 NMult   140 NNew     20
 CISAX will form    20 AO SS matrices at one time.
 NMat=    20 NSing=    20 JSym2X= 0.
 Root      1 not converged, maximum delta is    0.000019039115612
 Root      2 not converged, maximum delta is    0.000011907091524
 Root      3 not converged, maximum delta is    0.000143351952055
 Root      4 not converged, maximum delta is    0.000017468396572
 Root      5 not converged, maximum delta is    0.000213208986373
 Root      6 not converged, maximum delta is    0.000041432988038
 Root      7 not converged, maximum delta is    0.000076134270803
 Root      8 not converged, maximum delta is    0.000104743015145
 Root      9 not converged, maximum delta is    0.000093981524573
 Root     10 not converged, maximum delta is    0.001059560287901
 Excitation Energies [eV] at current iteration:
 Root      1 :     5.034705157362230   Change is   -0.000000246679340
 Root      2 :     5.533421029624350   Change is   -0.000000048740549
 Root      3 :     6.272550655000007   Change is   -0.000001577211145
 Root      4 :     6.481110463633913   Change is   -0.000000039010372
 Root      5 :     6.763931311817315   Change is   -0.000004083663814
 Root      6 :     6.790032740136607   Change is   -0.000000739678191
 Root      7 :     7.133878881843145   Change is   -0.000000419225911
 Root      8 :     7.253551396042116   Change is   -0.000001059041703
 Root      9 :     7.398783768736068   Change is   -0.000001311646876
 Root     10 :     7.515820989342724   Change is   -0.000045913694190
 Iteration     8 Dimension   180 NMult   160 NNew     20
 CISAX will form    20 AO SS matrices at one time.
 NMat=    20 NSing=    20 JSym2X= 0.
 Root      1 not converged, maximum delta is    0.000003454123016
 Root      2 not converged, maximum delta is    0.000001262008401
 Root      3 not converged, maximum delta is    0.000019985975433
 Root      4 not converged, maximum delta is    0.000004839717755
 Root      5 not converged, maximum delta is    0.000043929543850
 Root      6 not converged, maximum delta is    0.000011342818572
 Root      7 not converged, maximum delta is    0.000030514132501
 Root      8 not converged, maximum delta is    0.000019632823214
 Root      9 not converged, maximum delta is    0.000031162661226
 Root     10 not converged, maximum delta is    0.000245588512168
 Excitation Energies [eV] at current iteration:
 Root      1 :     5.034705148714211   Change is   -0.000000008648019
 Root      2 :     5.533421027559691   Change is   -0.000000002064659
 Root      3 :     6.272550546800757   Change is   -0.000000108199251
 Root      4 :     6.481110460676116   Change is   -0.000000002957797
 Root      5 :     6.763930960385928   Change is   -0.000000351431386
 Root      6 :     6.790032690281816   Change is   -0.000000049854792
 Root      7 :     7.133878826072869   Change is   -0.000000055770276
 Root      8 :     7.253551308873979   Change is   -0.000000087168138
 Root      9 :     7.398783642739084   Change is   -0.000000125996984
 Root     10 :     7.515815843482906   Change is   -0.000005145859819
 Iteration     9 Dimension   200 NMult   180 NNew     20
 CISAX will form    20 AO SS matrices at one time.
 NMat=    20 NSing=    20 JSym2X= 0.
 Root      1 has converged.
 Root      2 has converged.
 Root      3 not converged, maximum delta is    0.000005316970590
 Root      4 has converged.
 Root      5 not converged, maximum delta is    0.000010991313859
 Root      6 not converged, maximum delta is    0.000002171743002
 Root      7 not converged, maximum delta is    0.000009036351372
 Root      8 not converged, maximum delta is    0.000005289486769
 Root      9 not converged, maximum delta is    0.000009309115312
 Root     10 not converged, maximum delta is    0.000064435278484
 Excitation Energies [eV] at current iteration:
 Root      1 :     5.034705148396921   Change is   -0.000000000317289
 Root      2 :     5.533421027467610   Change is   -0.000000000092081
 Root      3 :     6.272550539984121   Change is   -0.000000006816635
 Root      4 :     6.481110460504651   Change is   -0.000000000171465
 Root      5 :     6.763930932438686   Change is   -0.000000027947243
 Root      6 :     6.790032686787480   Change is   -0.000000003494336
 Root      7 :     7.133878818764180   Change is   -0.000000007308689
 Root      8 :     7.253551302664887   Change is   -0.000000006209092
 Root      9 :     7.398783629573841   Change is   -0.000000013165243
 Root     10 :     7.515815356516926   Change is   -0.000000486965979
 Iteration    10 Dimension   214 NMult   200 NNew     14
 CISAX will form    14 AO SS matrices at one time.
 NMat=    14 NSing=    14 JSym2X= 0.
 Root      1 has converged.
 Root      2 has converged.
 Root      3 has converged.
 Root      4 has converged.
 Root      5 not converged, maximum delta is    0.000001555533049
 Root      6 has converged.
 Root      7 not converged, maximum delta is    0.000001512510767
 Root      8 not converged, maximum delta is    0.000001416517960
 Root      9 not converged, maximum delta is    0.000002336965496
 Root     10 not converged, maximum delta is    0.000031203186127
 Excitation Energies [eV] at current iteration:
 Root      1 :     5.034705148390619   Change is   -0.000000000006303
 Root      2 :     5.533421027466570   Change is   -0.000000000001040
 Root      3 :     6.272550539645727   Change is   -0.000000000338395
 Root      4 :     6.481110460500491   Change is   -0.000000000004160
 Root      5 :     6.763930930750448   Change is   -0.000000001688237
 Root      6 :     6.790032686546234   Change is   -0.000000000241246
 Root      7 :     7.133878818169809   Change is   -0.000000000594371
 Root      8 :     7.253551302216957   Change is   -0.000000000447930
 Root      9 :     7.398783628391404   Change is   -0.000000001182438
 Root     10 :     7.515815311589656   Change is   -0.000000044927270
 Iteration    11 Dimension   224 NMult   214 NNew     10
 CISAX will form    10 AO SS matrices at one time.
 NMat=    10 NSing=    10 JSym2X= 0.
 Root      1 has converged.
 Root      2 has converged.
 Root      3 has converged.
 Root      4 has converged.
 Root      5 has converged.
 Root      6 has converged.
 Root      7 has converged.
 Root      8 has converged.
 Root      9 has converged.
 Root     10 not converged, maximum delta is    0.000011084359112
 Excitation Energies [eV] at current iteration:
 Root      1 :     5.034705148390310   Change is   -0.000000000000310
 Root      2 :     5.533421027466452   Change is   -0.000000000000119
 Root      3 :     6.272550539640170   Change is   -0.000000000005557
 Root      4 :     6.481110460500060   Change is   -0.000000000000431
 Root      5 :     6.763930930646570   Change is   -0.000000000103879
 Root      6 :     6.790032686545120   Change is   -0.000000000001113
 Root      7 :     7.133878818128186   Change is   -0.000000000041623
 Root      8 :     7.253551302182491   Change is   -0.000000000034466
 Root      9 :     7.398783628284450   Change is   -0.000000000106953
 Root     10 :     7.515815306891747   Change is   -0.000000004697910
 Iteration    12 Dimension   226 NMult   224 NNew      2
 CISAX will form     2 AO SS matrices at one time.
 NMat=     2 NSing=     2 JSym2X= 0.
 Root      1 has converged.
 Root      2 has converged.
 Root      3 has converged.
 Root      4 has converged.
 Root      5 has converged.
 Root      6 has converged.
 Root      7 has converged.
 Root      8 has converged.
 Root      9 has converged.
 Root     10 not converged, maximum delta is    0.000002793910438
 Excitation Energies [eV] at current iteration:
 Root      1 :     5.034705148390293   Change is   -0.000000000000017
 Root      2 :     5.533421027466467   Change is    0.000000000000015
 Root      3 :     6.272550539640117   Change is   -0.000000000000052
 Root      4 :     6.481110460500035   Change is   -0.000000000000026
 Root      5 :     6.763930930645524   Change is   -0.000000000001045
 Root      6 :     6.790032686545011   Change is   -0.000000000000110
 Root      7 :     7.133878818128140   Change is   -0.000000000000047
 Root      8 :     7.253551302182345   Change is   -0.000000000000147
 Root      9 :     7.398783628284149   Change is   -0.000000000000301
 Root     10 :     7.515815306417017   Change is   -0.000000000474730
 Iteration    13 Dimension   228 NMult   226 NNew      2
 CISAX will form     2 AO SS matrices at one time.
 NMat=     2 NSing=     2 JSym2X= 0.
 Root      1 has converged.
 Root      2 has converged.
 Root      3 has converged.
 Root      4 has converged.
 Root      5 has converged.
 Root      6 has converged.
 Root      7 has converged.
 Root      8 has converged.
 Root      9 has converged.
 Root     10 has converged.
 Excitation Energies [eV] at current iteration:
 Root      1 :     5.034705148390228   Change is   -0.000000000000065
 Root      2 :     5.533421027466422   Change is   -0.000000000000045
 Root      3 :     6.272550539640065   Change is   -0.000000000000053
 Root      4 :     6.481110460499971   Change is   -0.000000000000063
 Root      5 :     6.763930930645282   Change is   -0.000000000000242
 Root      6 :     6.790032686544903   Change is   -0.000000000000109
 Root      7 :     7.133878818128162   Change is    0.000000000000023
 Root      8 :     7.253551302182345   Change is    0.000000000000000
 Root      9 :     7.398783628283994   Change is   -0.000000000000156
 Root     10 :     7.515815306372391   Change is   -0.000000000044626
 Convergence achieved on expansion vectors.
 ***********************************************************************
 Excited states from <AA,BB:AA,BB> singles matrix:
 ***********************************************************************
 
 1PDM for each excited state written to RWF  633
 Ground to excited state transition densities written to RWF  633
 Ground to excited state transition electric dipole moments (Au):
       state          X           Y           Z        Dip. S.      Osc.
         1        -1.6834      0.4796     -0.0296      3.0647      0.3780
         2         0.0286      0.0074      0.0115      0.0010      0.0001
         3        -0.2258     -1.6053     -0.1402      2.6476      0.4069
         4         0.0029      0.0596     -0.1525      0.0268      0.0043
         5        -0.8148      0.8148      0.0394      1.3293      0.2203
         6        -0.0263      0.0842     -0.0176      0.0081      0.0013
         7         0.0165      0.0180     -0.1235      0.0159      0.0028
         8         0.0272      0.0196     -0.0811      0.0077      0.0014
         9         0.0021      0.0260      0.0711      0.0057      0.0010
        10         0.8925     -0.3992      0.0097      0.9561      0.1760
 Ground to excited state transition velocity dipole moments (Au):
       state          X           Y           Z        Dip. S.      Osc.
         1         0.3110     -0.0914      0.0052      0.1051      0.3787
         2        -0.0060     -0.0018     -0.0093      0.0001      0.0004
         3         0.0467      0.3671      0.0322      0.1380      0.3991
         4        -0.0005     -0.0140      0.0379      0.0016      0.0046
         5         0.1961     -0.1983     -0.0097      0.0779      0.2089
         6         0.0052     -0.0215      0.0061      0.0005      0.0014
         7        -0.0039     -0.0044      0.0311      0.0010      0.0026
         8        -0.0068     -0.0050      0.0205      0.0005      0.0012
         9        -0.0012     -0.0077     -0.0109      0.0002      0.0004
        10        -0.2398      0.1078     -0.0025      0.0691      0.1668
 Ground to excited state transition magnetic dipole moments (Au):
       state          X           Y           Z
         1         0.0417      0.0614     -1.7713
         2        -0.7394     -0.0163      0.0279
         3         0.0662     -0.0724      0.8143
         4         0.0807     -0.2347     -0.0495
         5        -0.0443     -0.0375     -0.5020
         6        -0.2727      0.6943     -0.0374
         7         0.3474      0.3763      0.0312
         8         0.1238      0.1363      0.0094
         9        -0.3595      0.2668     -0.0219
        10        -0.0063      0.0644      0.0848
 Ground to excited state transition velocity quadrupole moments (Au):
       state          XX          YY          ZZ          XY          XZ          YZ
         1         0.2941     -0.3502     -0.0140      0.7086     -0.0002      0.0202
         2         0.0525      0.0085     -0.0039      0.0149      0.0313     -0.0573
         3        -0.3216      1.1000      0.0592      0.5148      0.0346      0.0420
         4        -0.0101     -0.0276      0.0017     -0.0237      0.1999      0.0741
         5        -0.6331     -0.2775      0.0120      0.3019     -0.0327      0.0423
         6         0.0133      0.0602     -0.0090      0.0292     -0.0386     -0.0301
         7         0.0793     -0.0602     -0.0011      0.0204     -0.2681      0.2324
         8         0.0219      0.0600     -0.0417      0.0310     -0.1281      0.0296
         9         0.0379      0.0066     -0.0199     -0.0154     -0.0545     -0.0570
        10         0.1154     -0.1789     -0.1060     -0.1697      0.0670     -0.0513
 <0|del|b> * <b|rxdel|0> + <0|del|b> * <b|delr+rdel|0>
 Rotatory Strengths (R) in cgs (10**-40 erg-esu-cm/Gauss)
       state          XX          YY          ZZ    R(velocity)    E-M Angle
         1       -21.3021     12.1798      2.0643     -2.3527       90.18
         2        -0.5455      8.1063      7.0736      4.8781       59.61
         3         5.3959     22.5525    -19.5414      2.8023       89.48
         4         4.9223     -1.5775      0.7185      1.3544       82.32
         5         4.1107     10.5612     -4.3538      3.4393       88.53
         6       -22.4450     -2.7887    -21.7924    -15.6753      165.32
         7        -1.6822     -2.6256     -1.2574     -1.8551       97.29
         8        -0.6673     -1.9730     -0.9066     -1.1823      109.09
         9        -2.6719      0.7529     -1.6345     -1.1845      103.20
        10        -0.0942     16.8648      4.2995      7.0233       72.93
 1/2[<0|r|b>*<b|rxdel|0> + (<0|rxdel|b>*<b|r|0>)*]
 Rotatory Strengths (R) in cgs (10**-40 erg-esu-cm/Gauss)
       state          XX          YY          ZZ     R(length)
         1        49.5851    -20.8200    -37.0612     -2.7653
         2        14.9658      0.0859     -0.2268      4.9416
         3        10.5733    -82.1852     80.7103      3.0328
         4        -0.1650      9.8952     -5.3394      1.4636
         5       -25.5282     21.5925     13.9689      3.3444
         6        -5.0736    -41.3603     -0.4649    -15.6329
         7        -4.0531     -4.7901      2.7258     -2.0391
         8        -2.3811     -1.8880      0.5416     -1.2425
         9         0.5310     -4.9027      1.1016     -1.0900
        10         3.9505     18.1766     -0.5787      7.1828
  1/2[<0|del|b>*<b|r|0> + (<0|r|b>*<b|del|0>)*] (Au)
       state          X           Y           Z        Dip. S.   Osc.(frdel)
         1        -0.5236     -0.0438     -0.0002      0.5676      0.3784
         2        -0.0002     -0.0000     -0.0001      0.0003      0.0002
         3        -0.0106     -0.5893     -0.0045      0.6044      0.4029
         4        -0.0000     -0.0008     -0.0058      0.0066      0.0044
         5        -0.1597     -0.1616     -0.0004      0.3217      0.2145
         6        -0.0001     -0.0018     -0.0001      0.0021      0.0014
         7        -0.0001     -0.0001     -0.0038      0.0040      0.0027
         8        -0.0002     -0.0001     -0.0017      0.0019      0.0013
         9        -0.0000     -0.0002     -0.0008      0.0010      0.0006
        10        -0.2140     -0.0430     -0.0000      0.2570      0.1714

 Excitation energies and oscillator strengths:
 
 Excited State   1:      Singlet-A      5.0347 eV  246.26 nm  f=0.3780  <S**2>=0.000
      53 -> 54         0.69708
 
 Excited State   2:      Singlet-A      5.5334 eV  224.06 nm  f=0.0001  <S**2>=0.000
      49 -> 54        -0.16849
      52 -> 54         0.63591
      52 -> 56         0.18810
 
 Excited State   3:      Singlet-A      6.2726 eV  197.66 nm  f=0.4069  <S**2>=0.000
      53 -> 56         0.69206
 
 Excited State   4:      Singlet-A      6.4811 eV  191.30 nm  f=0.0043  <S**2>=0.000
      53 -> 55         0.64782
      53 -> 57         0.10002
      53 -> 58        -0.12116
      53 -> 62        -0.19555
 This state for optimization and/or second-order correction.
 Total Energy, E(TD-HF/TD-DFT) =  -759.652684464    
 Copying the excited state density for this state as the 1-particle RhoCI density.
 
 Excited State   5:      Singlet-A      6.7639 eV  183.30 nm  f=0.2203  <S**2>=0.000
      50 -> 54         0.50670
      51 -> 54        -0.45107
 
 Excited State   6:      Singlet-A      6.7900 eV  182.60 nm  f=0.0013  <S**2>=0.000
      47 -> 56         0.14550
      49 -> 54        -0.20994
      49 -> 56         0.43850
      52 -> 54        -0.13914
      52 -> 56         0.40577
 
 Excited State   7:      Singlet-A      7.1339 eV  173.80 nm  f=0.0028  <S**2>=0.000
      53 -> 57         0.62464
      53 -> 58         0.14178
      53 -> 60        -0.20251
      53 -> 62         0.10852
 
 Excited State   8:      Singlet-A      7.2536 eV  170.93 nm  f=0.0014  <S**2>=0.000
      53 -> 55         0.10836
      53 -> 57        -0.10207
      53 -> 58         0.64097
      53 -> 60         0.14039
 
 Excited State   9:      Singlet-A      7.3988 eV  167.57 nm  f=0.0010  <S**2>=0.000
      47 -> 54         0.11378
      49 -> 54         0.61117
      49 -> 56         0.13383
      52 -> 54         0.12423
      52 -> 56         0.20383
 
 Excited State  10:      Singlet-A      7.5158 eV  164.96 nm  f=0.1760  <S**2>=0.000
      50 -> 56        -0.29460
      51 -> 56         0.26971
      53 -> 59         0.53685
 SavETr:  write IOETrn=   770 NScale= 10 NData=  16 NLR=1 NState=   10 LETran=     190.
 The selected state is a singlet.
 CISGrd: IGrad=3 NXY=2 DFT=T
 CISAX will form     1 AO SS matrices at one time.
 NMat=     1 NSing=     1 JSym2X= 0.
 GePol: Maximum number of non-zero 1st derivatives   =     266
 GePol: Maximum number of non-zero 2nd derivatives   =     266
 Leave Link  914 at Thu Jan  5 15:03:23 2023, MaxMem=  1342177280 cpu:            7630.6 elap:             152.8
 (Enter /shared/gaussian/g16.b01/AVX2/g16/l1002.exe)
 Minotr:  Closed shell wavefunction.
          Computing CIS/TDA/TD derivatives.
          Using Z-Vector for PSCF gradient.
          Skipping F1 and S1 gradient terms here.
          IDoAtm=111111111111111111111111111
 NEqPCM:  Using equilibrium solvation (IEInf=0, Eps=  78.3553, EpsInf=   1.7778)
          Frozen-core window.
          Direct CPHF calculation.
          Differentiating once with respect to electric field.
                with respect to dipole field.
          Differentiating once with respect to nuclear coordinates.
          Requested convergence is 1.0D-10 RMS, and 1.0D-09 maximum.
          NewPWx=F KeepS1=T KeepF1=T KeepIn=T MapXYZ=F SortEE=F KeepMc=T.
 Two-electron integral symmetry used by symmetrizing perturbed Fock matrices.
          MDV=    1342177280 using IRadAn=       5.
          Solving linear equations separately, MaxMat=     350.
          There are     1 degrees of freedom in the 1st order CPHF.  IDoFFX=0 NUNeed=     1.
 FoFJK:  IHMeth= 1 ICntrl=       0 DoSepK=T KAlg= 0 I1Cent=           0 FoldK=F
 IRaf=         1 NMat=       1 IRICut=       1 DoRegI=T DoRafI=F ISym2E=-1 IDoP0=0 IntGTp=1.
 FoFCou: FMM=F IPFlag=           0 FMFlag=      100000 FMFlg1=           0
         NFxFlg=           0 DoJE=T BraDBF=F KetDBF=F FulRan=T
         wScrn=  0.000000 ICntrl=       500 IOpCl=  0 I1Cent=           0 NGrid=           0
         NMat0=    1 NMatS0=      1 NMatT0=    0 NMatD0=    1 NMtDS0=    0 NMtDT0=    0
 Petite list used in FoFCou.
 LinEq1:  Iter=  0 NonCon=     1 RMS=4.68D-03 Max=1.83D-01 NDo=     1
 AX will form     1 AO Fock derivatives at one time.
 LinEq1:  Iter=  1 NonCon=     1 RMS=1.39D-03 Max=3.83D-02 NDo=     1
 LinEq1:  Iter=  2 NonCon=     1 RMS=7.56D-04 Max=2.59D-02 NDo=     1
 LinEq1:  Iter=  3 NonCon=     1 RMS=2.59D-04 Max=9.08D-03 NDo=     1
 LinEq1:  Iter=  4 NonCon=     1 RMS=1.37D-04 Max=3.41D-03 NDo=     1
 LinEq1:  Iter=  5 NonCon=     1 RMS=5.79D-05 Max=2.24D-03 NDo=     1
 LinEq1:  Iter=  6 NonCon=     1 RMS=3.74D-05 Max=1.96D-03 NDo=     1
 LinEq1:  Iter=  7 NonCon=     1 RMS=1.58D-05 Max=4.20D-04 NDo=     1
 LinEq1:  Iter=  8 NonCon=     1 RMS=1.11D-05 Max=6.06D-04 NDo=     1
 LinEq1:  Iter=  9 NonCon=     1 RMS=3.99D-06 Max=1.57D-04 NDo=     1
 LinEq1:  Iter= 10 NonCon=     1 RMS=2.63D-06 Max=8.15D-05 NDo=     1
 LinEq1:  Iter= 11 NonCon=     1 RMS=1.26D-06 Max=5.94D-05 NDo=     1
 LinEq1:  Iter= 12 NonCon=     1 RMS=6.08D-07 Max=1.61D-05 NDo=     1
 LinEq1:  Iter= 13 NonCon=     1 RMS=2.26D-07 Max=7.71D-06 NDo=     1
 LinEq1:  Iter= 14 NonCon=     1 RMS=9.44D-08 Max=3.30D-06 NDo=     1
 LinEq1:  Iter= 15 NonCon=     1 RMS=5.17D-08 Max=1.72D-06 NDo=     1
 LinEq1:  Iter= 16 NonCon=     1 RMS=1.61D-08 Max=4.29D-07 NDo=     1
 LinEq1:  Iter= 17 NonCon=     1 RMS=8.56D-09 Max=1.58D-07 NDo=     1
 LinEq1:  Iter= 18 NonCon=     1 RMS=2.25D-09 Max=6.92D-08 NDo=     1
 LinEq1:  Iter= 19 NonCon=     1 RMS=1.11D-09 Max=2.81D-08 NDo=     1
 LinEq1:  Iter= 20 NonCon=     1 RMS=4.03D-10 Max=1.26D-08 NDo=     1
 LinEq1:  Iter= 21 NonCon=     1 RMS=1.97D-10 Max=4.92D-09 NDo=     1
 LinEq1:  Iter= 22 NonCon=     1 RMS=7.24D-11 Max=1.28D-09 NDo=     1
 LinEq1:  Iter= 23 NonCon=     0 RMS=2.11D-11 Max=4.25D-10 NDo=     1
 Linear equations converged to 1.000D-10 1.000D-09 after    23 iterations.
          There are     1 degrees of freedom in the 1st order CPHF.  IDoFFX=0 NUNeed=     1.
 End of Minotr F.D. properties file   721 does not exist.
 End of Minotr F.D. properties file   722 does not exist.
 End of Minotr F.D. properties file   788 does not exist.
 Leave Link 1002 at Thu Jan  5 15:04:14 2023, MaxMem=  1342177280 cpu:            2502.4 elap:              50.4
 (Enter /shared/gaussian/g16.b01/AVX2/g16/l1101.exe)
 Using compressed Sx but separate Hx and Fx, NAtomX=    27.
 Will process     28 centers per pass.
 Leave Link 1101 at Thu Jan  5 15:04:14 2023, MaxMem=  1342177280 cpu:              20.0 elap:               0.4
 (Enter /shared/gaussian/g16.b01/AVX2/g16/l1102.exe)
 Use density number 6.
 Symmetrizing basis deriv contribution to polar:
 IMax=3 JMax=2 DiffMx= 0.00D+00
 Leave Link 1102 at Thu Jan  5 15:04:14 2023, MaxMem=  1342177280 cpu:               1.4 elap:               0.0
 (Enter /shared/gaussian/g16.b01/AVX2/g16/l1110.exe)
 Forming Gx(P) for the SCF density, NAtomX=    27.
 Integral derivatives from FoFJK, PRISM(SPDF).
 Do as many integral derivatives as possible in FoFJK.
 G2DrvN: MDV=    1342174984.
 G2DrvN: will do    28 centers at a time, making    1 passes.
 Calling FoFCou, ICntrl=  3107 FMM=F I1Cent=   0 AccDes= 0.00D+00.
 FoFJK:  IHMeth= 1 ICntrl=    3107 DoSepK=T KAlg= 0 I1Cent=           0 FoldK=F
 IRaf=         1 NMat=       1 IRICut=       1 DoRegI=T DoRafI=F ISym2E= 0 IDoP0=0 IntGTp=1.
 FoFCou: FMM=F IPFlag=           0 FMFlag=      100000 FMFlg1=           0
         NFxFlg=           0 DoJE=F BraDBF=F KetDBF=F FulRan=T
         wScrn=  0.000000 ICntrl=      3507 IOpCl=  0 I1Cent=           0 NGrid=           0
         NMat0=    1 NMatS0=      1 NMatT0=    0 NMatD0=    1 NMtDS0=    0 NMtDT0=    0
 Symmetry not used in FoFCou.
 NEqPCM:  Using equilibrium solvation (IEInf=0, Eps=  78.3553, EpsInf=   1.7778)
 G2PCM: DoFxE=T DoFxN=T DoGrad=T DoDP/DQ/DG/TGxP=FFFF NFrqRd=   0 IEInf=0 SqF1=F DoCFld=F IF1Alg=4.
 Forming Gx(P) for generalized density number  6 NAtomX=    27.
 Integral derivatives from FoFJK, PRISM(SPDF).
 Do as many integral derivatives as possible in FoFJK.
 G2DrvN: MDV=    1342174984.
 G2DrvN: will do    28 centers at a time, making    1 passes.
 Calling FoFCou, ICntrl=  3107 FMM=F I1Cent=   0 AccDes= 0.00D+00.
 NEqPCM:  Using equilibrium solvation (IEInf=0, Eps=  78.3553, EpsInf=   1.7778)
 G2PCM: DoFxE=T DoFxN=F DoGrad=F DoDP/DQ/DG/TGxP=FFFF NFrqRd=   0 IEInf=0 SqF1=F DoCFld=F IF1Alg=4.
 Forming Gx(T) for CIS/TDA/TD state  4 NAtomX=    27.
 Integral derivatives from FoFJK, PRISM(SPDF).
 Do as many integral derivatives as possible in FoFJK.
 G2DrvN: MDV=    1342174984.
 G2DrvN: will do    28 centers at a time, making    1 passes.
 Calling FoFCou, ICntrl=  3107 FMM=F I1Cent=   0 AccDes= 0.00D+00.
 NEqPCM:  Using equilibrium solvation (IEInf=0, Eps=  78.3553, EpsInf=   1.7778)
 G2PCM: DoFxE=T DoFxN=F DoGrad=F DoDP/DQ/DG/TGxP=FFFF NFrqRd=   0 IEInf=0 SqF1=T DoCFld=F IF1Alg=4.
 End of G2Drv F.D. properties file   721 does not exist.
 End of G2Drv F.D. properties file   722 does not exist.
 End of G2Drv F.D. properties file   788 does not exist.
 Leave Link 1110 at Thu Jan  5 15:05:21 2023, MaxMem=  1342177280 cpu:            3317.6 elap:              66.5
 (Enter /shared/gaussian/g16.b01/AVX2/g16/l1002.exe)
 Minotr:  Closed shell wavefunction.
          IDoAtm=111111111111111111111111111
 NEqPCM:  Using equilibrium solvation (IEInf=0, Eps=  78.3553, EpsInf=   1.7778)
          Frozen-core window.
          Direct CPHF calculation.
          Differentiating once with respect to electric field.
                with respect to dipole field.
          Differentiating once with respect to nuclear coordinates.
          Requested convergence is 1.0D-08 RMS, and 1.0D-07 maximum.
          Secondary convergence is 1.0D-12 RMS, and 1.0D-12 maximum.
          NewPWx=T KeepS1=T KeepF1=T KeepIn=T MapXYZ=F SortEE=F KeepMc=T.
         8369 words used for storage of precomputed grid.
 Two-electron integrals replicated using symmetry.
          MDV=    1342177280 using IRadAn=       1.
          Solving linear equations simultaneously, MaxMat=     350.
 FoF2E skips out because all densities are zero.
 CalDSu exits because no D1Ps are significant.
 FoFJK:  IHMeth= 1 ICntrl=       0 DoSepK=T KAlg= 0 I1Cent=           0 FoldK=F
 IRaf=         1 NMat=      81 IRICut=       1 DoRegI=T DoRafI=F ISym2E= 2 IDoP0=3 IntGTp=3.
          There are    84 degrees of freedom in the 1st order CPHF.  IDoFFX=6 NUNeed=    84.
     81 vectors produced by pass  0 Test12= 2.00D-14 1.19D-09 XBig12= 7.41D+01 5.27D+00.
 AX will form    81 AO Fock derivatives at one time.
     81 vectors produced by pass  1 Test12= 2.00D-14 1.19D-09 XBig12= 9.97D+00 4.21D-01.
     81 vectors produced by pass  2 Test12= 2.00D-14 1.19D-09 XBig12= 2.17D-01 5.63D-02.
     81 vectors produced by pass  3 Test12= 2.00D-14 1.19D-09 XBig12= 1.60D-03 3.52D-03.
     81 vectors produced by pass  4 Test12= 2.00D-14 1.19D-09 XBig12= 8.11D-06 2.28D-04.
     81 vectors produced by pass  5 Test12= 2.00D-14 1.19D-09 XBig12= 3.72D-08 1.49D-05.
     63 vectors produced by pass  6 Test12= 2.00D-14 1.19D-09 XBig12= 1.66D-10 9.93D-07.
     13 vectors produced by pass  7 Test12= 2.00D-14 1.19D-09 XBig12= 6.30D-13 9.29D-08.
[...]
 7717,-0.00011569,0.00006136,-0.00002539,0.00005292,-0.00000523,0.00003
 522,0.00003336,-0.00000634,0.00000468,0.00000344,-0.00000035,-0.000002
 89,0.15089138,-0.11133115,-0.07039708,0.00041783,0.00006733,0.00008812
 ,0.00004008,-0.00002146,0.00002578,0.00030530,-0.00873578,0.00007945,-
 0.15108051,0.11872842,-0.00066525,-0.00142503,-0.00032360,0.00043811,-
 0.00005603,0.00003329,-0.00021474,-0.00009900,-0.00010585,-0.00002098,
 0.00006066,0.00007165,0.00014205,-0.00004677,0.00008378,-0.00109980,0.
 00086044,0.00000110,0.00181345,0.00255613,0.00130454,-0.00029766,-0.00
 013673,0.00006189,0.00005163,-0.00003258,0.00000044,0.00001851,0.00000
 404,-0.00001045,0.00132929,0.00017936,-0.00031238,-0.00002777,-0.00001
 744,-0.00001379,-0.00000147,-0.00000327,-0.00000688,0.00000291,-0.0000
 0492,0.00001046,0.00000891,-0.00001169,-0.00000367,0.05620163,-0.05285
 927,-0.07616852,0.00061424,0.00012759,0.00001709,-0.00003805,-0.000002
 42,0.00000950,-0.00173268,-0.00204504,0.00164126,-0.08818385,0.0673755
 6,0.09176047,-0.00109999,-0.00145383,0.00008814,0.00043690,-0.00048079
 ,0.00060417,-0.00018471,0.00002990,-0.00022043,0.00005651,-0.00000247,
 -0.00017959,-0.00009172,-0.00009801,0.00038480,-0.00042089,0.00040581,
 -0.00029302,0.00139580,0.00172266,-0.00224780,-0.00014188,0.00025442,-
 0.00012682,0.00004977,-0.00002789,-0.00001948,0.00000625,-0.00000262,0
 .00001526,0.00027850,-0.00002144,0.00007594,0.00001487,-0.00002440,0.0
 0007835,-0.00003532,-0.00000574,-0.00008146,0.00002787,0.00001256,-0.0
 0005241,-0.00000409,-0.00001092,0.00000375,-0.05902360,-0.02578319,-0.
 11324197,0.00011525,-0.00009331,-0.00010160,-0.00002906,-0.00000442,-0
 .00000158,-0.00009841,-0.00028178,0.00005342,0.00958025,0.00959603,0.0
 3423758,0.05110139,-0.00080394,-0.00051828,0.00009884,-0.00007322,-0.0
 0014590,0.00036381,-0.00002752,-0.00001491,-0.00008725,-0.00004968,0.0
 0005557,-0.00015826,0.00002380,-0.00010636,0.00025884,-0.00003102,0.00
 005456,-0.00018028,0.00042482,-0.00026471,-0.00195131,0.00006193,0.000
 03346,-0.00011522,0.00001976,-0.00001198,-0.00001038,0.00000389,-0.000
 00449,0.00001734,0.00004825,-0.00000805,0.00008223,-0.00001738,0.00002
 041,0.00004905,-0.00000882,-0.00000645,-0.00003024,0.00003161,0.000010
 52,-0.00005439,-0.00001023,-0.00000209,0.00000366,-0.00861989,-0.06121
 210,-0.14234600,-0.00010277,0.00001450,-0.00000688,0.00000893,0.000000
 98,0.00001008,-0.00004578,0.00009273,-0.00013469,-0.00697257,-0.005915
 40,-0.02029128,0.01496986,0.06751472,0.00186532,0.00143168,0.00001772,
 -0.00104339,0.00062072,0.00020563,0.00029099,-0.00014906,-0.00001499,0
 .00000390,0.00019040,-0.00013720,-0.00031688,-0.00049675,0.00022469,0.
 00089844,-0.00014789,-0.00011742,-0.00253911,-0.00234903,-0.00019212,0
 .00041645,-0.00043479,-0.00013168,-0.00009100,-0.00001379,-0.00001244,
 -0.00003029,-0.00004960,0.00000279,-0.00050195,0.00027395,-0.00002045,
 -0.00006480,0.00016467,0.00006152,0.00003261,0.00000222,0.00005536,0.0
 0008009,0.00000707,-0.00014805,-0.00006984,-0.00000557,-0.00000862,-0.
 07341061,-0.16023397,-0.45343125,-0.00016092,0.00000526,-0.00000529,0.
 00002621,0.00001843,-0.00007041,0.00010790,-0.00029698,0.00005679,-0.0
 0609486,-0.00269635,-0.01277834,0.08225220,0.16296948,0.46709345,0.002
 25146,-0.00062151,-0.00108422,-0.00429207,0.00326661,0.00579140,0.0001
 3535,-0.00095471,-0.00221243,0.00035184,-0.00003479,-0.00076050,-0.000
 83854,0.00020578,0.00278920,-0.00018112,0.00089924,-0.00302810,-0.0013
 0611,-0.00168381,-0.00005341,0.00017140,-0.00800533,0.00064218,0.00021
 704,0.00006797,-0.00014730,-0.00000031,-0.00004786,0.00003046,0.000799
 14,-0.00014326,0.00091328,0.00023763,-0.00017210,0.00055512,-0.0002379
 1,-0.00002349,-0.00052180,0.00017099,0.00004018,-0.00041115,0.00000938
 ,-0.00001046,0.00000559,-0.00742269,0.00694094,-0.00421977,-0.23866786
 ,-0.22310490,0.09553538,-0.00023764,-0.00000020,0.00012476,-0.00024668
 ,-0.00039505,0.00007008,0.00178598,-0.00085797,-0.00275597,-0.00070821
 ,0.00114811,0.00073769,0.61521227,0.00188505,-0.00154452,-0.00164714,-
 0.00368112,0.00486876,0.00776999,-0.00012212,-0.00151092,-0.00311238,0
 .00020159,0.00034999,-0.00118589,-0.00095190,-0.00046832,0.00408711,-0
 .00045230,0.00201699,-0.00419749,-0.00011804,0.00139405,-0.00055631,-0
 .00362164,-0.00894803,0.00085899,0.00025459,-0.00006980,-0.00021830,-0
 .00003741,-0.00009832,0.00006866,0.00086435,-0.00041816,0.00126562,0.0
 0012103,-0.00008154,0.00084351,-0.00029530,-0.00004754,-0.00067592,0.0
 0033634,0.00007223,-0.00072593,-0.00005757,-0.00006216,0.00000997,0.00
 595101,-0.00162086,0.00271175,-0.17990051,-0.24473456,0.11004954,-0.00
 037616,0.00011236,0.00011182,-0.00025326,-0.00001645,0.00005897,-0.000
 62781,0.00063119,0.00167309,0.00086180,-0.00096767,-0.00019641,0.05797
 009,0.35482293,-0.00051379,0.00062638,-0.00005226,0.00154051,-0.001768
 63,0.00004956,0.00000597,0.00075391,-0.00012851,0.00000332,-0.00004502
 ,-0.00012081,0.00021392,-0.00004841,0.00027778,0.00018060,-0.00043620,
 -0.00016227,-0.00033087,-0.00072065,-0.00014062,0.00142034,0.00427662,
 0.00070153,-0.00009295,0.00000737,-0.00000135,0.00000381,0.00002475,0.
 00002918,-0.00020545,0.00012172,0.00003673,-0.00006216,0.00002644,-0.0
 0001185,-0.00000053,0.00000575,-0.00002870,0.00002607,0.00000437,-0.00
 001710,0.00001039,0.00001773,0.00000635,-0.00578722,0.00416313,0.00099
 223,0.07057115,0.10369466,-0.05733505,0.00015213,-0.00003099,0.0000219
 1,0.00006820,-0.00008182,-0.00000638,0.00076218,-0.00035299,-0.0019227
 9,0.00017682,-0.00003090,0.00055176,0.05070206,-0.18748938,0.12477961,
 -0.00128254,-0.00028343,-0.00032129,0.00096636,-0.00189301,0.00059888,
 -0.00008131,0.00020230,-0.00010322,-0.00021965,0.00019003,-0.00004175,
 0.00025801,-0.00036267,0.00028522,0.00024037,-0.00000411,-0.00037029,0
 .00191946,0.00122213,0.00045098,0.00092317,0.00186968,-0.00064928,-0.0
 0005524,-0.00005221,-0.00002030,-0.00001656,-0.00000014,-0.00001948,-0
 .00040287,-0.00008314,0.00011242,-0.00011409,0.00006526,0.00006383,0.0
 0001163,0.00000449,-0.00001414,0.00005724,0.00002151,-0.00008117,-0.00
 001121,-0.00000197,0.00000113,-0.00100080,-0.00299649,0.00113660,-0.03
 123437,0.01304061,-0.01187107,0.00010053,0.00003070,-0.00000208,0.0001
 1041,0.00039954,-0.00001611,-0.00293612,0.00158766,0.00247866,0.000567
 53,-0.00103088,-0.00150597,-0.36691056,0.12109026,-0.11817354,0.398313
 49,0.00062017,0.00076145,0.00014284,-0.00137878,-0.00004494,-0.0000702
 5,0.00029193,0.00015963,0.00000953,0.00009299,-0.00015616,0.00006558,-
 0.00008230,0.00028090,-0.00012380,0.00049623,-0.00067541,0.00007119,-0
 .00120969,-0.00330174,0.00063662,0.00060904,-0.00103949,0.00054420,-0.
 00003717,0.00008321,0.00001016,0.00001263,0.00000573,0.00000236,-0.000
 12869,0.00018598,-0.00003803,0.00008529,-0.00002140,-0.00004538,0.0000
 0298,0.00000431,0.00000279,-0.00002738,-0.00000542,0.00005971,0.000017
 28,0.00003046,0.00000121,-0.00114447,-0.00129086,-0.00028327,-0.030221
 82,0.01084245,-0.00942746,0.00006553,-0.00002742,0.00000054,0.00000599
 ,-0.00025946,0.00004194,0.00161043,-0.00183254,-0.00277256,-0.00146751
 ,0.00193214,0.00042141,0.16453722,-0.10306304,0.07668017,-0.13183441,0
 .09632282,-0.00062336,-0.00043986,-0.00002085,0.00072269,-0.00029192,-
 0.00034126,-0.00016211,-0.00001972,0.00016802,-0.00008499,0.00007739,0
 .00011265,0.00011171,-0.00009936,-0.00025533,-0.00017210,0.00016631,0.
 00018009,0.00106155,0.00168721,0.00040646,-0.00014120,0.00076991,-0.00
 027890,0.00000488,-0.00004265,0.00000587,-0.00000168,0.00000294,-0.000
 01853,-0.00004912,-0.00010971,-0.00005841,-0.00004571,0.00001387,-0.00
 002726,0.00002294,0.00000167,0.00004820,-0.00000910,0.00000171,0.00002
 140,-0.00000380,-0.00001305,-0.00000312,0.00295865,-0.00371288,-0.0056
 1631,0.01268988,-0.00355091,0.00524059,-0.00000474,0.00002160,0.000005
 87,0.00002551,0.00027651,-0.00000568,-0.00166208,0.00068443,0.00349012
 ,-0.00112920,0.00118833,-0.00188275,-0.14296138,0.07087718,-0.06776632
 ,0.12856402,-0.06637247,0.06714387,0.00492727,-0.00524902,-0.00085907,
 -0.00758710,0.01561343,0.00338514,-0.00254539,-0.00168537,-0.00104731,
 0.00073744,-0.00023301,-0.00034746,-0.00167012,0.00092287,0.00143016,-
 0.00105861,0.00269005,-0.00134653,-0.00075325,-0.00065896,-0.00015827,
 0.00489829,-0.00926430,-0.00129217,0.00405159,0.00073315,0.00005836,0.
 00017768,-0.00005187,0.00001290,0.00221453,-0.00058950,0.00043432,0.00
 054228,-0.00029966,0.00029221,-0.00020802,-0.00006874,-0.00029358,0.00
 000454,-0.00002701,-0.00020982,-0.00002460,-0.00009673,-0.00000256,0.0
 0031762,0.00032617,0.00007221,-0.00063347,-0.00102968,0.00041534,-0.31
 155978,-0.19228963,-0.04124396,-0.00067790,-0.00039287,0.00011051,-0.0
 0009979,-0.00004571,0.00004731,0.00003073,-0.00000763,-0.00002957,0.00
 042236,0.00054505,-0.00019320,-0.00011891,-0.00005657,-0.00001376,0.32
 933493,-0.00079121,-0.00031081,-0.00003462,0.00555935,0.00026467,0.000
 02178,0.00027600,0.00044185,0.00024963,-0.00157780,-0.00026717,-0.0001
 3730,0.00124419,-0.00054473,-0.00000636,0.00049150,0.00014539,0.000063
 51,0.00009413,0.00013649,0.00003797,-0.00497088,-0.00471820,-0.0001167
 2,0.00187173,-0.00742633,-0.00108535,0.00001444,-0.00003186,0.00000581
 ,-0.00047216,-0.00006335,-0.00002964,-0.00060702,0.00026400,-0.0000023
 3,0.00013680,0.00005247,0.00016765,0.00015135,0.00008244,-0.00013913,-
 0.00002816,-0.00003125,-0.00000256,-0.00006753,-0.00005117,-0.00002188
 ,-0.00013176,0.00018395,-0.00008471,-0.22247836,-0.17152009,-0.0580662
 4,0.00013265,0.00008150,-0.00002974,0.00001135,0.00000527,-0.00000887,
 0.00000027,-0.00000189,0.00001178,-0.00002977,-0.00019153,0.00009900,0
 .00000572,0.00003572,-0.00002195,0.20865548,0.17775137,-0.00013571,-0.
 00020781,0.00232062,0.00031682,0.00150123,-0.00803018,0.00009921,-0.00
 058857,0.00320020,-0.00027018,0.00010505,0.00091292,0.00066920,0.00047
 432,-0.00467244,-0.00036247,-0.00081096,0.00562355,-0.00000360,-0.0000
 1394,-0.00002409,-0.00047137,-0.00107164,-0.00102099,-0.00049049,0.000
 29472,0.00159972,0.00006046,0.00003737,0.00003269,-0.00002610,0.000182
 60,-0.00169264,-0.00007027,0.00013300,-0.00095622,0.00034110,-0.000000
 90,0.00087699,-0.00034275,-0.00010327,0.00070684,-0.00000381,-0.000017
 34,-0.00002078,-0.00000324,0.00003419,-0.00003273,0.00021949,0.0001189
 5,0.00017594,-0.07643684,-0.07872697,-0.04930647,-0.00000820,-0.000019
 45,-0.00005092,0.00001243,-0.00000642,-0.00000040,-0.00000767,-0.00000
 647,0.00000433,-0.00013908,-0.00013124,-0.00005409,-0.00000443,-0.0000
 1166,-0.00000320,0.04895569,0.05943711,0.04626013,0.00017116,0.0000293
 8,0.00075864,-0.00024743,-0.00068123,-0.00363822,0.00141165,0.00056055
 ,0.00186529,0.00130132,-0.00036906,0.00040880,-0.00132420,0.00062937,-
 0.00216191,0.00035710,-0.00023727,0.00252823,0.00006298,0.00005035,0.0
 0000197,-0.00113166,-0.00017124,0.00057413,-0.00266521,0.00098193,0.00
 014592,-0.00024276,-0.00012936,-0.00002891,-0.00022590,0.00017743,-0.0
 0077046,0.00052286,-0.00025422,-0.00042383,-0.00001609,0.00000073,0.00
 014483,-0.00036628,-0.00009812,0.00055648,0.00001501,0.00004572,-0.000
 00796,0.00002446,-0.00001638,0.00002852,0.00004882,0.00011894,-0.00001
 220,-0.25286569,0.05042980,0.21953801,-0.00001551,-0.00001976,-0.00000
 415,0.00000367,0.00001575,0.00000194,-0.00000928,-0.00000041,-0.000040
 48,-0.00003652,-0.00007739,0.00000347,-0.00000541,0.00000424,0.0000040
 8,-0.02107291,0.01256983,0.02806410,0.27630753,-0.00012394,0.00040971,
 -0.00017742,-0.00000140,-0.00119698,0.00104069,0.00162877,-0.00160838,
 -0.00017175,-0.00020028,0.00051503,-0.00008378,0.00049876,-0.00030982,
 0.00070136,-0.00032688,-0.00008731,-0.00087082,-0.00000678,-0.00005745
 ,-0.00002153,-0.00142835,0.00073360,-0.00066323,-0.00143975,0.00227611
 ,-0.00172988,0.00010707,0.00008289,0.00003630,0.00013808,-0.00001928,0
 .00026976,-0.00011084,0.00009065,0.00016292,0.00000013,-0.00002074,-0.
 00004935,0.00012422,0.00002079,-0.00020683,0.00000332,-0.00001268,0.00
 000697,-0.00000155,0.00001267,-0.00000591,0.00000921,0.00000950,0.0000
 2819,0.08233562,-0.05229295,-0.10813649,0.00000471,0.00000692,0.000001
 75,-0.00000359,-0.00000486,-0.00000023,0.00000281,-0.00000010,0.000009
 94,0.00001229,0.00000850,-0.00001091,0.00000091,-0.00000249,-0.0000023
 6,-0.01765037,0.00575070,0.01935393,-0.06357398,0.04570052,-0.00063857
 ,0.00030424,-0.00033923,0.00114709,0.00024099,0.00221965,-0.00240740,0
 .00039951,-0.00124846,-0.00223518,0.00063693,-0.00026694,0.00225209,-0
 .00079603,0.00159262,-0.00053757,-0.00008881,-0.00185422,-0.00002426,-
 0.00003269,-0.00000314,-0.00182546,-0.00028834,-0.00087359,0.00235382,
 -0.00199140,-0.00010710,0.00029589,0.00016058,0.00002654,0.00015646,-0
 .00016434,0.00055777,-0.00083545,0.00043443,0.00026137,0.00013556,0.00
 001111,0.00007816,0.00043192,0.00010686,-0.00058017,-0.00003134,-0.000
 07742,0.00000912,-0.00005958,0.00000947,-0.00005565,-0.00000717,-0.000
 04324,-0.00001312,0.25739408,-0.08904052,-0.26464313,0.00007449,0.0000
 5565,-0.00002051,0.00000361,-0.00002038,-0.00000695,0.00000860,-0.0000
 0401,0.00006351,-0.00000919,0.00001988,0.00001753,0.00001777,0.0000022
 2,-0.00000663,-0.00810848,-0.00032873,0.00411201,-0.24753990,0.0905199
 7,0.26106784,-0.00284855,0.00220866,0.00047285,0.00260254,-0.00028290,
 -0.00068628,-0.00061320,-0.00005365,0.00046176,0.00028810,-0.00085417,
 -0.00037615,-0.00127818,0.00070840,-0.00032115,0.00612115,-0.00526961,
 0.00017600,0.00159118,0.00078607,-0.00004010,-0.00085956,0.00094894,0.
 00021892,0.00034765,-0.00019181,0.00003827,-0.00012423,0.00004314,0.00
 004375,-0.01564160,-0.00756778,0.00278904,0.00022091,-0.00021682,0.000
 00691,-0.00015930,0.00000161,-0.00008059,-0.00012615,-0.00002174,0.000
 04785,0.00000059,-0.00008921,-0.00001200,-0.00980713,0.01449588,0.0081
 8341,0.00008337,-0.00022826,0.00009641,-0.00029331,0.00008117,-0.00002
 170,-0.20651827,-0.21993274,0.00378787,-0.00261175,-0.00965228,-0.0040
 1439,-0.00182631,0.00097105,-0.00082250,-0.00068882,0.00050122,-0.0004
 6940,0.00092874,-0.00088766,0.00088164,0.00035545,-0.00006253,0.000044
 55,0.00000792,-0.00000133,-0.00002194,0.33596618,-0.00146411,0.0031723
 2,0.00084255,0.00134049,0.00010085,-0.00190246,-0.00015627,0.00023929,
 0.00097770,0.00047427,-0.00089097,-0.00019011,-0.00131842,0.00085872,-
 0.00103247,0.00511171,-0.00594499,0.00122546,-0.00170860,-0.00206805,-
 0.00028845,-0.00038947,0.00067106,0.00050477,0.00011925,-0.00008589,0.
 00006294,-0.00013039,0.00001771,0.00003834,-0.01491288,-0.00232991,0.0
 0222999,0.00035369,-0.00023499,-0.00015417,-0.00011499,0.00001994,0.00
 002982,-0.00022649,-0.00002399,0.00021143,0.00001870,-0.00003509,-0.00
 000299,0.01504257,-0.01012213,-0.00955297,-0.00029578,-0.00022430,0.00
 006131,-0.00018104,0.00005729,-0.00006032,-0.20284171,-0.25884602,-0.0
 2127671,-0.00722994,0.00083941,0.00926113,0.00198983,-0.00065493,0.000
 75628,0.00084570,-0.00037014,0.00042068,-0.00101747,0.00090572,-0.0009
 0716,0.00019869,-0.00002832,0.00005710,0.00000390,-0.00000054,-0.00000
 443,0.22013008,0.30899953,0.00110734,-0.00045354,0.00039906,-0.0009849
 4,0.00012947,-0.00149337,0.00022725,0.00018592,0.00083371,0.00050083,0
 .00017855,-0.00020913,-0.00043257,-0.00037876,-0.00069382,-0.00035794,
 0.00144974,0.00119589,-0.00081798,-0.00051051,-0.00020434,0.00038475,-
 0.00041180,0.00035666,-0.00027251,-0.00000074,0.00004394,-0.00003826,-
 0.00010474,0.00003180,0.00429775,0.00298815,0.00178607,0.00011808,0.00
 002840,-0.00009255,0.00000308,-0.00001237,0.00013227,-0.00005577,0.000
 00086,0.00006030,0.00000564,0.00004395,0.00001202,0.00985718,-0.009435
 07,0.00029038,-0.00006468,0.00008755,-0.00003282,0.00003922,-0.0000065
 4,-0.00015603,0.03192177,0.01322789,-0.04580275,-0.00320310,0.00695821
 ,-0.00540962,-0.00020591,0.00030767,0.00048010,0.00049671,-0.00035592,
 0.00034457,-0.00062267,0.00055141,-0.00061022,-0.00009845,0.00004799,0
 .00005156,-0.00004410,0.00001643,0.00009171,-0.22187555,0.03763369,0.4
 8451778,0.00003514,0.00002794,-0.00004670,-0.00005452,-0.00003529,0.00
 033797,0.00000601,0.00000480,-0.00020069,0.00000891,0.00000314,0.00007
 281,-0.00015544,-0.00006811,0.00009868,0.00021665,-0.00003680,-0.00020
 216,0.00000501,-0.00003856,0.00004102,0.00001534,0.00000086,-0.0000911
 2,-0.00000685,-0.00000290,-0.00001602,-0.00001016,-0.00000916,-0.00001
 495,-0.00077430,-0.00087832,-0.00024475,0.00000284,0.00001089,0.000030
 27,-0.00000292,0.00000652,-0.00001845,0.00001073,0.00001236,-0.0000160
 4,0.00000351,0.00000496,-0.00000033,-0.00014551,0.00077124,-0.00014342
 ,-0.00000135,0.00000091,0.00000044,0.00000683,-0.00000245,-0.00000075,
 -0.01087353,0.00519489,0.02776811,-0.00146297,-0.00021832,0.00166640,0
 .00001188,0.00008974,0.00001036,0.00001021,-0.00000987,-0.00001184,-0.
 00000727,0.00002448,0.00001677,-0.00000488,0.00000239,-0.00000685,-0.0
 0000962,0.00000315,0.00001011,-0.10511742,-0.01364131,0.18011483,0.118
 29369,-0.00006517,0.00030312,-0.00003583,0.00007974,0.00003675,0.00039
 497,0.00000402,-0.00003222,-0.00018900,-0.00012909,-0.00004403,0.00002
 263,0.00007443,0.00009399,0.00013148,0.00017010,-0.00059205,-0.0002972
 6,-0.00028356,-0.00026745,-0.00007572,-0.00003557,0.00008009,-0.000109
 42,0.00005544,0.00001158,-0.00000931,0.00000617,0.00002281,-0.00000434
 ,-0.00159337,-0.00091592,-0.00011524,-0.00003165,0.00000693,0.00004900
 ,0.00000253,0.00000028,-0.00003394,0.00002698,0.00000286,-0.00003037,-
 0.00000612,-0.00000907,-0.00000216,0.00309943,-0.00277624,-0.00022929,
 -0.00004390,-0.00003486,0.00000559,-0.00000074,-0.00000078,0.00003805,
 -0.01213431,0.00366830,0.03141163,-0.00232932,0.00415262,-0.00228487,-
 0.00008763,0.00010573,0.00018693,0.00015111,-0.00006342,0.00009321,-0.
 00017085,0.00016985,-0.00018504,0.00001174,-0.00000912,-0.00001293,0.0
 0001048,-0.00000400,-0.00002151,0.00443627,-0.03402157,-0.05216590,0.0
 0878284,0.03011586,-0.00048071,0.00031960,0.00005586,0.00051106,0.0000
 7034,-0.00012611,-0.00007986,-0.00012467,0.00001959,-0.00035486,-0.000
 03671,0.00000836,0.00057610,0.00032191,-0.00002094,-0.00024164,-0.0006
 3888,-0.00013943,0.00019612,0.00000303,-0.00000411,-0.00018030,0.00016
 264,0.00005271,0.00014940,0.00002264,0.00001441,0.00005354,0.00007342,
 0.00000390,-0.00090738,-0.00096791,0.00034480,-0.00006579,-0.00002055,
 0.00000275,0.00001080,0.00000140,-0.00004133,0.00003873,0.00000209,0.0
 0002940,-0.00000245,-0.00002214,-0.00000025,-0.00160886,0.00151705,0.0
 0075149,-0.00000216,-0.00005115,0.00002185,-0.00000282,-0.00000147,0.0
 0009628,-0.00165957,-0.00285207,-0.00311288,0.00168651,-0.00230794,-0.
 00142235,-0.00007008,0.00005822,0.00013335,-0.00008959,0.00008621,-0.0
 0006064,0.00010725,-0.00009899,0.00007163,0.00003007,-0.00002610,-0.00
 001232,0.00004769,-0.00001771,-0.00007898,0.21149251,-0.01894094,-0.43
 592316,-0.20915369,0.02346865,0.43933614\\-0.00329884,-0.00670417,-0.0
 0143235,0.02397738,0.03711733,0.00668109,0.00705868,-0.05593293,-0.005
 26529,-0.06503125,0.04227533,-0.00006466,0.04597755,-0.03232383,0.0004
 6682,0.03009726,0.02572076,0.00280231,0.00279932,0.00299586,0.00081096
 ,0.00197901,-0.02675536,-0.00223284,-0.01189405,0.00110451,-0.00039149
 ,0.00121798,0.00121293,0.00019247,-0.02414309,-0.00617098,-0.00071060,
 -0.01660970,0.00753682,0.00025589,0.00243242,0.00333743,0.00213822,0.0
 0277603,0.00372538,-0.00167389,0.00044005,0.00100071,0.00012608,-0.001
 74857,-0.00184830,-0.00106711,0.00216507,0.00411544,-0.00141859,0.0050
 6198,-0.00252246,-0.00171410,0.00568456,0.00365013,-0.00101541,0.00040
 935,0.00041146,-0.00016102,-0.00015938,0.00003592,0.00087711,-0.001672
 94,-0.00167429,0.00064988,0.00051881,0.00005749,0.00001685,-0.00435882
 ,0.00212945,-0.00001003,-0.00081295,-0.00009935,0.00161894,-0.00288580
 ,-0.00216057,0.00115928,0.00001995,-0.00023470,-0.00063855\\\@


 SOME PEOPLE TRY TO PULL THE WOOL OVER YOUR EYES
 USING THE WRONG YARN.
 Job cpu time:       0 days  9 hours 26 minutes  2.8 seconds.
 Elapsed time:       0 days  0 hours 11 minutes 21.8 seconds.
 File lengths (MBytes):  RWF=   1804 Int=      0 D2E=      0 Chk=     62 Scr=      1
 Normal termination of Gaussian 16 at Thu Jan  5 15:11:49 2023.
