 Entering Gaussian System, Link 0=/shared/gaussian/g16.b01/AVX2/g16/g16
 Initial command:
 /shared/gaussian/g16.b01/AVX2/g16/l1.exe "/scratch/marlene/SCRGAU.145847.Thymine6311-freq-solv-ES1/Gau-82015.inp" -scrdir="/scratch/marlene/SCRGAU.145847.Thymine6311-freq-solv-ES1/"
 Entering Link 1 = /shared/gaussian/g16.b01/AVX2/g16/l1.exe PID=     82016.
  
 Copyright (c) 1988-2017, Gaussian, Inc.  All Rights Reserved.
  
 This is part of the Gaussian(R) 16 program.  It is based on
 the Gaussian(R) 09 system (copyright 2009, Gaussian, Inc.),
 the Gaussian(R) 03 system (copyright 2003, Gaussian, Inc.),
 the Gaussian(R) 98 system (copyright 1998, Gaussian, Inc.),
 the Gaussian(R) 94 system (copyright 1995, Gaussian, Inc.),
 the Gaussian 92(TM) system (copyright 1992, Gaussian, Inc.),
 the Gaussian 90(TM) system (copyright 1990, Gaussian, Inc.),
 the Gaussian 88(TM) system (copyright 1988, Gaussian, Inc.),
 the Gaussian 86(TM) system (copyright 1986, Carnegie Mellon
 University), and the Gaussian 82(TM) system (copyright 1983,
 Carnegie Mellon University). Gaussian is a federally registered
 trademark of Gaussian, Inc.
  
 This software contains proprietary and confidential information,
 including trade secrets, belonging to Gaussian, Inc.
  
 This software is provided under written license and may be
 used, copied, transmitted, or stored only in accord with that
 written license.
  
 The following legend is applicable only to US Government
 contracts under FAR:
  
                    RESTRICTED RIGHTS LEGEND
  
 Use, reproduction and disclosure by the US Government is
 subject to restrictions as set forth in subparagraphs (a)
 and (c) of the Commercial Computer Software - Restricted
 Rights clause in FAR 52.227-19.
  
 Gaussian, Inc.
 340 Quinnipiac St., Bldg. 40, Wallingford CT 06492
  
  
 ---------------------------------------------------------------
 Warning -- This program may not be used in any manner that
 competes with the business of Gaussian, Inc. or will provide
 assistance to any competitor of Gaussian, Inc.  The licensee
 of this program is prohibited from giving any competitor of
 Gaussian, Inc. access to this program.  By using this program,
 the user acknowledges that Gaussian, Inc. is engaged in the
 business of creating and licensing software in the field of
 computational chemistry and represents and warrants to the
 licensee that it is not a competitor of Gaussian, Inc. and that
 it will not use this program in any manner prohibited above.
 ---------------------------------------------------------------
  

 Cite this work as:
 Gaussian 16, Revision B.01,
 M. J. Frisch, G. W. Trucks, H. B. Schlegel, G. E. Scuseria, 
 M. A. Robb, J. R. Cheeseman, G. Scalmani, V. Barone, 
 G. A. Petersson, H. Nakatsuji, X. Li, M. Caricato, A. V. Marenich, 
 J. Bloino, B. G. Janesko, R. Gomperts, B. Mennucci, H. P. Hratchian, 
 J. V. Ortiz, A. F. Izmaylov, J. L. Sonnenberg, D. Williams-Young, 
 F. Ding, F. Lipparini, F. Egidi, J. Goings, B. Peng, A. Petrone, 
 T. Henderson, D. Ranasinghe, V. G. Zakrzewski, J. Gao, N. Rega, 
 G. Zheng, W. Liang, M. Hada, M. Ehara, K. Toyota, R. Fukuda, 
 J. Hasegawa, M. Ishida, T. Nakajima, Y. Honda, O. Kitao, H. Nakai, 
 T. Vreven, K. Throssell, J. A. Montgomery, Jr., J. E. Peralta, 
 F. Ogliaro, M. J. Bearpark, J. J. Heyd, E. N. Brothers, K. N. Kudin, 
 V. N. Staroverov, T. A. Keith, R. Kobayashi, J. Normand, 
 K. Raghavachari, A. P. Rendell, J. C. Burant, S. S. Iyengar, 
 J. Tomasi, M. Cossi, J. M. Millam, M. Klene, C. Adamo, R. Cammi, 
 J. W. Ochterski, R. L. Martin, K. Morokuma, O. Farkas, 
 J. B. Foresman, and D. J. Fox, Gaussian, Inc., Wallingford CT, 2016.
 
 ******************************************
 Gaussian 16:  ES64L-G16RevB.01 20-Dec-2017
                 5-Jan-2023 
 ******************************************
 %nprocshared=50
 Will use up to   50 processors via shared memory.
 %mem=10GB
 %chk=Thymine6311-freq-solv-ES1.chk
 ----------------------------------------------------------------------
 #p freq td=(nstates=10,root=1) cam-b3lyp/6-311+g(d,p) scrf=(solvent=wa
 ter,pcm) symm=loose
 ----------------------------------------------------------------------
 1/10=4,30=1,38=1/1,3;
 2/12=2,17=4,18=3,40=1/2;
 3/5=4,6=6,7=111,11=9,25=1,30=1,70=2201,71=2,72=1,74=-40,140=1/1,2,3,8;
 4//1;
 5/5=2,38=5,53=1,98=1/2;
 8/6=1,10=2,107=1,108=10/1;
 9/8=1,15=3,41=10,42=1,70=2/14;
 10/5=2004,20=4,28=1/2;
 11/6=1,8=1,12=-1,16=1,42=3/1,2,10;
 10/6=3,21=1,28=1/2,14;
 6/7=2,8=2,9=2,10=2/1;
 7/8=1,10=1,12=6,13=8,14=1,25=1,44=2/1,2,3,16;
 1/10=4,30=1/3;
 99//99;
 Leave Link    1 at Thu Jan  5 14:58:47 2023, MaxMem=  1342177280 cpu:               2.3 elap:               0.1
 (Enter /shared/gaussian/g16.b01/AVX2/g16/l101.exe)
 --------------------
 Thymine solvated ES1
 --------------------
 Symbolic Z-matrix:
 Charge =  0 Multiplicity = 1
 N                    -0.23117  -0.03514  -0.18765 
 C                     1.09637  -0.362    -0.13809 
 N                     1.94349   0.69304   0.00033 
 C                     1.50712   1.98844   0.09405 
 C                     0.20304   2.31854   0.06272 
 C                    -0.75796   1.242    -0.07949 
 H                    -0.88878  -0.81343  -0.33326 
 O                     1.49365  -1.52662  -0.21212 
 H                     2.93788   0.46073   0.03201 
 H                     2.28981   2.72781   0.1993 
 O                    -1.97581   1.4124   -0.10838 
 C                    -0.29892   3.72357   0.17089 
 H                    -0.87752   4.00063  -0.71272 
 H                    -0.95505   3.8378    1.03618 
 H                     0.53193   4.42132   0.27266 
 O                    -2.15696  -2.18939  -0.54554 
 H                     0.53502  -3.05163   0.41374 
 O                     4.21976  -1.0042    0.05234 
 H                    -3.35011   0.32965   0.14121 
 H                    -2.95662  -1.6966   -0.24879 
 H                    -2.33746  -2.49334  -1.44134 
 O                    -0.11605  -3.71234   0.69918 
 H                    -0.9538   -3.34536   0.37493 
 H                     3.43773  -1.55482  -0.12499 
 H                     4.87117  -1.22696  -0.61977 
 O                    -4.00852  -0.39484   0.18979 
 H                    -4.41687  -0.34438   1.0594 
 
 ITRead=  0  0  0  0  0  0  0  0  0  0  0  0  0  0  0  0  0  0  0  0
 ITRead=  0  0  0  0  0  0  0
 MicOpt= -1 -1 -1 -1 -1 -1 -1 -1 -1 -1 -1 -1 -1 -1 -1 -1 -1 -1 -1 -1
 MicOpt= -1 -1 -1 -1 -1 -1 -1
 NAtoms=     27 NQM=       27 NQMF=       0 NMMI=      0 NMMIF=      0
                NMic=       0 NMicF=      0.
                    Isotopes and Nuclear Properties:
 (Nuclear quadrupole moments (NQMom) in fm**2, nuclear magnetic moments (NMagM)
  in nuclear magnetons)

  Atom         1           2           3           4           5           6           7           8           9          10
 IAtWgt=          14          12          14          12          12          12           1          16           1           1
 AtmWgt=  14.0030740  12.0000000  14.0030740  12.0000000  12.0000000  12.0000000   1.0078250  15.9949146   1.0078250   1.0078250
 NucSpn=           2           0           2           0           0           0           1           0           1           1
 AtZEff=  -0.0000000  -0.0000000  -0.0000000  -0.0000000  -0.0000000  -0.0000000  -0.0000000  -0.0000000  -0.0000000  -0.0000000
 NQMom=    2.0440000   0.0000000   2.0440000   0.0000000   0.0000000   0.0000000   0.0000000   0.0000000   0.0000000   0.0000000
 NMagM=    0.4037610   0.0000000   0.4037610   0.0000000   0.0000000   0.0000000   2.7928460   0.0000000   2.7928460   2.7928460
 AtZNuc=   7.0000000   6.0000000   7.0000000   6.0000000   6.0000000   6.0000000   1.0000000   8.0000000   1.0000000   1.0000000

  Atom        11          12          13          14          15          16          17          18          19          20
 IAtWgt=          16          12           1           1           1          16           1          16           1           1
 AtmWgt=  15.9949146  12.0000000   1.0078250   1.0078250   1.0078250  15.9949146   1.0078250  15.9949146   1.0078250   1.0078250
 NucSpn=           0           0           1           1           1           0           1           0           1           1
 AtZEff=  -0.0000000  -0.0000000  -0.0000000  -0.0000000  -0.0000000  -0.0000000  -0.0000000  -0.0000000  -0.0000000  -0.0000000
 NQMom=    0.0000000   0.0000000   0.0000000   0.0000000   0.0000000   0.0000000   0.0000000   0.0000000   0.0000000   0.0000000
 NMagM=    0.0000000   0.0000000   2.7928460   2.7928460   2.7928460   0.0000000   2.7928460   0.0000000   2.7928460   2.7928460
 AtZNuc=   8.0000000   6.0000000   1.0000000   1.0000000   1.0000000   8.0000000   1.0000000   8.0000000   1.0000000   1.0000000

  Atom        21          22          23          24          25          26          27
 IAtWgt=           1          16           1           1           1          16           1
 AtmWgt=   1.0078250  15.9949146   1.0078250   1.0078250   1.0078250  15.9949146   1.0078250
 NucSpn=           1           0           1           1           1           0           1
 AtZEff=  -0.0000000  -0.0000000  -0.0000000  -0.0000000  -0.0000000  -0.0000000  -0.0000000
 NQMom=    0.0000000   0.0000000   0.0000000   0.0000000   0.0000000   0.0000000   0.0000000
 NMagM=    2.7928460   0.0000000   2.7928460   2.7928460   2.7928460   0.0000000   2.7928460
 AtZNuc=   1.0000000   8.0000000   1.0000000   1.0000000   1.0000000   8.0000000   1.0000000
 Leave Link  101 at Thu Jan  5 14:58:48 2023, MaxMem=  1342177280 cpu:              11.1 elap:               0.2
 (Enter /shared/gaussian/g16.b01/AVX2/g16/l103.exe)

 GradGradGradGradGradGradGradGradGradGradGradGradGradGradGradGradGradGrad
 Berny optimization.
 Initialization pass.
 Trust Radius=3.00D-01 FncErr=1.00D-07 GrdErr=1.00D-07 EigMax=2.50D+02 EigMin=1.00D-04
 Number of steps in this run=      2 maximum allowed number of steps=      2.
 GradGradGradGradGradGradGradGradGradGradGradGradGradGradGradGradGradGrad

 Leave Link  103 at Thu Jan  5 14:58:48 2023, MaxMem=  1342177280 cpu:               1.2 elap:               0.0
 (Enter /shared/gaussian/g16.b01/AVX2/g16/l202.exe)
                          Input orientation:                          
 ---------------------------------------------------------------------
 Center     Atomic      Atomic             Coordinates (Angstroms)
 Number     Number       Type             X           Y           Z
 ---------------------------------------------------------------------
      1          7           0       -0.231165   -0.035141   -0.187654
      2          6           0        1.096368   -0.361997   -0.138091
      3          7           0        1.943485    0.693041    0.000329
      4          6           0        1.507124    1.988439    0.094046
      5          6           0        0.203040    2.318540    0.062719
      6          6           0       -0.757961    1.241995   -0.079486
      7          1           0       -0.888783   -0.813428   -0.333259
      8          8           0        1.493654   -1.526624   -0.212117
      9          1           0        2.937877    0.460730    0.032007
     10          1           0        2.289814    2.727806    0.199297
     11          8           0       -1.975809    1.412395   -0.108376
     12          6           0       -0.298918    3.723573    0.170889
     13          1           0       -0.877521    4.000626   -0.712721
     14          1           0       -0.955053    3.837803    1.036180
     15          1           0        0.531929    4.421320    0.272664
     16          8           0       -2.156963   -2.189392   -0.545540
     17          1           0        0.535018   -3.051632    0.413739
     18          8           0        4.219759   -1.004202    0.052340
     19          1           0       -3.350109    0.329652    0.141206
     20          1           0       -2.956623   -1.696599   -0.248786
     21          1           0       -2.337462   -2.493339   -1.441344
     22          8           0       -0.116054   -3.712336    0.699184
     23          1           0       -0.953795   -3.345363    0.374927
     24          1           0        3.437732   -1.554817   -0.124989
     25          1           0        4.871171   -1.226960   -0.619765
     26          8           0       -4.008523   -0.394843    0.189792
     27          1           0       -4.416871   -0.344381    1.059404
 ---------------------------------------------------------------------
                    Distance matrix (angstroms):
                    1          2          3          4          5
     1  N    0.000000
     2  C    1.368077   0.000000
     3  N    2.301019   1.360100   0.000000
     4  C    2.682514   2.397323   1.370128   0.000000
     5  C    2.406457   2.832603   2.382286   1.345579   0.000000
     6  C    1.385746   2.452501   2.757813   2.391214   1.450067
     7  H    1.029268   2.045166   3.225286   3.711256   3.340374
     8  O    2.280377   1.232750   2.274729   3.528397   4.065280
     9  H    3.215115   2.024097   1.021659   2.093991   3.306317
    10  H    3.760178   3.329418   2.073596   1.081825   2.130910
    11  O    2.268354   3.547904   3.986245   3.536046   2.365958
    12  C    3.776384   4.328299   3.773803   2.505670   1.495921
    13  H    4.120787   4.822750   4.405296   3.222779   2.144372
    14  H    4.125709   4.819290   4.400459   3.220261   2.144054
    15  H    4.544695   4.833987   3.995838   2.627131   2.138674
    16  O    2.911628   3.753605   5.041832   5.593646   5.124553
    17  H    3.169847   2.802457   4.022097   5.142909   5.391862
    18  O    4.561513   3.194411   2.839853   4.039310   5.212941
    19  H    3.157378   4.508608   5.307922   5.132885   4.072678
    20  H    3.192538   4.268507   5.457426   5.798455   5.118774
    21  H    3.471450   4.246443   5.527924   6.101196   5.645399
    22  O    3.784375   3.660023   4.912987   5.958165   6.072757
    23  H    3.434569   3.656067   4.984302   5.880855   5.789261
    24  H    3.971668   2.627732   2.702100   4.041025   5.049887
    25  H    5.257469   3.902475   3.555596   4.707986   5.901508
    26  O    3.813172   5.115515   6.053576   6.009290   5.011572
    27  H    4.378461   5.641818   6.530851   6.439541   5.424768
                    6          7          8          9         10
     6  C    0.000000
     7  H    2.075158   0.000000
     8  O    3.571080   2.489845   0.000000
     9  H    3.779157   4.049719   2.468796   0.000000
    10  H    3.402100   4.788260   4.347793   2.363812   0.000000
    11  O    1.230051   2.487265   4.548161   5.006964   4.474428
    12  C    2.536067   4.602878   5.560987   4.598073   2.773787
    13  H    2.832901   4.828999   6.035194   5.257637   3.533250
    14  H    2.832274   4.849093   6.027561   5.250513   3.530103
    15  H    3.449048   5.457852   6.044664   4.640342   2.442034
    16  O    3.734813   1.883247   3.725243   5.771837   6.671390
    17  H    4.511131   2.755861   1.906916   4.272720   6.043773
    18  O    5.462644   5.126625   2.788281   1.946705   4.204066
    19  H    2.756865   2.754973   5.199292   6.290300   6.128886
    20  H    3.673978   2.250131   4.453673   6.283156   6.877590
    21  H    4.278107   2.479642   4.137993   6.223061   7.166850
    22  O    5.056062   3.172809   2.863384   5.214029   6.893005
    23  H    4.613967   2.629914   3.105228   5.454269   6.887324
    24  H    5.042625   4.394515   1.946234   2.082530   4.445642
    25  H    6.170475   5.781882   3.415201   2.647778   4.793166
    26  O    3.649370   3.190858   5.631732   7.000670   7.029941
    27  H    4.147443   3.821900   6.160257   7.469676   7.426826
                   11         12         13         14         15
    11  O    0.000000
    12  C    2.869058   0.000000
    13  H    2.875832   1.091928   0.000000
    14  H    2.869591   1.091920   1.758174   0.000000
    15  H    3.935425   1.089732   1.770457   1.770470   0.000000
    16  O    3.632740   6.239291   6.323072   6.346141   7.183391
    17  H    5.148242   6.830654   7.280008   7.076161   7.474284
    18  O    6.652130   6.540975   7.184420   7.154833   6.563911
    19  H    1.767293   4.563918   4.507653   4.341013   5.641742
    20  H    3.263059   6.051263   6.082456   6.023871   7.061929
    21  H    4.142747   6.738320   6.695812   6.937762   7.680087
    22  O    5.511235   7.456895   7.878013   7.604083   8.170567
    23  H    4.890231   7.102137   7.426463   7.213538   7.908173
    24  H    6.173415   6.473909   7.059021   7.051611   6.657029
    25  H    7.355872   7.201578   7.770699   7.895496   7.178337
    26  O    2.736227   5.542822   5.471549   5.287281   6.619516
    27  H    3.226260   5.856214   5.877628   5.429124   6.915308
                   16         17         18         19         20
    16  O    0.000000
    17  H    2.985035   0.000000
    18  O    6.513426   4.230827   0.000000
    19  H    2.870679   5.157671   7.687000   0.000000
    20  H    0.985071   3.803500   7.215993   2.100623   0.000000
    21  H    0.963031   3.464703   6.888089   3.391047   1.562162
    22  O    2.834432   0.970517   5.152831   5.206546   3.609803
    23  H    1.905555   1.518008   5.687773   4.393482   2.668101
    24  H    5.646252   3.310050   0.972722   7.049601   6.397125
    25  H    7.094114   4.816615   0.962125   8.401879   7.850640
    26  O    2.681304   5.268059   8.251960   0.980185   1.730148
    27  H    3.329729   5.680431   8.720144   1.560573   2.381634
                   21         22         23         24         25
    21  H    0.000000
    22  O    3.316997   0.000000
    23  H    2.437072   0.970372   0.000000
    24  H    5.997206   4.238342   4.768803   0.000000
    25  H    7.364991   5.726180   6.277521   1.551464   0.000000
    26  O    3.139544   5.139704   4.251024   7.542635   8.955265
    27  H    3.898167   5.474478   4.633281   8.035094   9.479783
                   26         27
    26  O    0.000000
    27  H    0.962039   0.000000
 Stoichiometry    C5H14N2O6
 Framework group  C1[X(C5H14N2O6)]
 Deg. of freedom    75
 Full point group                 C1      NOp   1
 Largest Abelian subgroup         C1      NOp   1
 Largest concise Abelian subgroup C1      NOp   1
                         Standard orientation:                         
 ---------------------------------------------------------------------
 Center     Atomic      Atomic             Coordinates (Angstroms)
 Number     Number       Type             X           Y           Z
 ---------------------------------------------------------------------
      1          7           0       -0.231165   -0.035141   -0.187654
      2          6           0        1.096368   -0.361997   -0.138091
      3          7           0        1.943485    0.693041    0.000329
      4          6           0        1.507124    1.988439    0.094046
      5          6           0        0.203040    2.318540    0.062719
      6          6           0       -0.757961    1.241995   -0.079486
      7          1           0       -0.888783   -0.813428   -0.333259
      8          8           0        1.493654   -1.526624   -0.212117
      9          1           0        2.937877    0.460731    0.032007
     10          1           0        2.289814    2.727806    0.199297
     11          8           0       -1.975809    1.412395   -0.108376
     12          6           0       -0.298919    3.723573    0.170889
     13          1           0       -0.877522    4.000626   -0.712721
     14          1           0       -0.955054    3.837803    1.036180
     15          1           0        0.531928    4.421320    0.272664
     16          8           0       -2.156963   -2.189392   -0.545540
     17          1           0        0.535019   -3.051632    0.413739
     18          8           0        4.219759   -1.004201    0.052340
     19          1           0       -3.350109    0.329651    0.141206
     20          1           0       -2.956623   -1.696600   -0.248786
     21          1           0       -2.337461   -2.493339   -1.441344
     22          8           0       -0.116053   -3.712336    0.699184
     23          1           0       -0.953794   -3.345363    0.374927
     24          1           0        3.437732   -1.554816   -0.124989
     25          1           0        4.871171   -1.226959   -0.619765
     26          8           0       -4.008523   -0.394844    0.189792
     27          1           0       -4.416871   -0.344382    1.059404
 ---------------------------------------------------------------------
 Rotational constants (GHZ):           0.6284335           0.5383142           0.2971763
 Leave Link  202 at Thu Jan  5 14:58:48 2023, MaxMem=  1342177280 cpu:               0.1 elap:               0.0
 (Enter /shared/gaussian/g16.b01/AVX2/g16/l301.exe)
 Standard basis: 6-311+G(d,p) (5D, 7F)
 Ernie: Thresh=  0.10000D-02 Tol=  0.10000D-05 Strict=F.
 There are   383 symmetry adapted cartesian basis functions of A   symmetry.
 There are   370 symmetry adapted basis functions of A   symmetry.
   370 basis functions,   580 primitive gaussians,   383 cartesian basis functions
    53 alpha electrons       53 beta electrons
       nuclear repulsion energy       873.8248456000 Hartrees.
 IExCor=20419 DFT=T Ex+Corr=CAM-B3LYP ExCW=0 ScaHFX=  1.000000
 ScaDFX=  1.000000  1.000000  1.000000  0.810000 ScalE2=  1.000000  1.000000
 IRadAn=      5 IRanWt=     -1 IRanGd=            0 ICorTp=0 IEmpDi=  4
 HFx  wShort=  0.000000 wLong=  0.330000 cFull=  0.190000 cShort=  0.000000 cLong=  0.460000
 DFx  wShort=  0.000000 wLong=  0.330000 cFull=  0.190000 cShort=  0.000000 cLong=  0.460000
 NAtoms=   27 NActive=   27 NUniq=   27 SFac= 1.00D+00 NAtFMM=   60 NAOKFM=F Big=F
 Integral buffers will be    131072 words long.
 Raffenetti 1 integral format.
 Two-electron integral symmetry is turned on.
 Force inversion solution in PCM.
 ------------------------------------------------------------------------------
 Polarizable Continuum Model (PCM)
 =================================
 Model                : PCM.
 Atomic radii         : UFF (Universal Force Field).
 Polarization charges : Total charges.
 Charge compensation  : None.
 Solution method      : Matrix inversion.
 Cavity type          : Scaled VdW (van der Waals Surface) (Alpha=1.100).
 Cavity algorithm     : GePol (No added spheres)
                        Default sphere list used, NSphG=   27.
                        Lebedev-Laikov grids with approx.  5.0 points / Ang**2.
                        Smoothing algorithm: York/Karplus (Gamma=1.0000).
                        Polarization charges: spherical gaussians, with
                                              point-specific exponents (IZeta= 3).
                        Self-potential: point-specific (ISelfS= 7).
                        Self-field    : sphere-specific E.n sum rule (ISelfD= 2).
 1st derivatives      : Analytical E(r).r(x)/FMM algorithm (CHGder, D1EAlg=3).
                        Cavity 1st derivative terms included.
 2nd derivatives      : Analytical E(r).r(xy)/FMM algorithm (CHGder, D2EAlg=3).
                        Cavity 2nd derivative terms included.
 Solvent              : Water, Eps=  78.355300 Eps(inf)=   1.777849
 ------------------------------------------------------------------------------
 GePol: Number of generator spheres                  =      27
 GePol: Total number of spheres                      =      27
 GePol: Number of exposed spheres                    =      27 (100.00%)
 GePol: Number of points                             =    2281
 GePol: Average weight of points                     =       0.12
 GePol: Minimum weight of points                     =   0.27D-09
 GePol: Maximum weight of points                     =    0.20577
 GePol: Number of points with low weight             =     148
 GePol: Fraction of low-weight points (<1% of avg)   =       6.49%
 GePol: Cavity surface area                          =    280.953 Ang**2
 GePol: Cavity volume                                =    278.556 Ang**3
 Leave Link  301 at Thu Jan  5 14:58:48 2023, MaxMem=  1342177280 cpu:               3.2 elap:               0.1
 (Enter /shared/gaussian/g16.b01/AVX2/g16/l302.exe)
 NPDir=0 NMtPBC=     1 NCelOv=     1 NCel=       1 NClECP=     1 NCelD=      1
         NCelK=      1 NCelE2=     1 NClLst=     1 CellRange=     0.0.
 One-electron integrals computed using PRISM.
 One-electron integral symmetry used in STVInt
 NBasis=   370 RedAO= T EigKep=  5.61D-06  NBF=   370
 NBsUse=   370 1.00D-06 EigRej= -1.00D+00 NBFU=   370
 Precomputing XC quadrature grid using
 IXCGrd= 4 IRadAn=           5 IRanWt=          -1 IRanGd=           0 AccXCQ= 0.00D+00.
 Generated NRdTot=       0 NPtTot=           0 NUsed=           0 NTot=          32
 NSgBfM=   381   381   381   381   381 MxSgAt=    27 MxSgA2=    27.
 Leave Link  302 at Thu Jan  5 14:58:48 2023, MaxMem=  1342177280 cpu:              18.3 elap:               0.4
 (Enter /shared/gaussian/g16.b01/AVX2/g16/l303.exe)
 DipDrv:  MaxL=1.
 Leave Link  303 at Thu Jan  5 14:58:48 2023, MaxMem=  1342177280 cpu:               2.5 elap:               0.1
 (Enter /shared/gaussian/g16.b01/AVX2/g16/l308.exe)
 Leave Link  308 at Thu Jan  5 14:58:49 2023, MaxMem=  1342177280 cpu:               4.1 elap:               0.1
 (Enter /shared/gaussian/g16.b01/AVX2/g16/l401.exe)
 ExpMin= 4.38D-02 ExpMax= 8.59D+03 ExpMxC= 1.30D+03 IAcc=3 IRadAn=         5 AccDes= 0.00D+00
 Harris functional with IExCor=20419 and IRadAn=       5 diagonalized for initial guess.
 HarFok:  IExCor=20419 AccDes= 0.00D+00 IRadAn=         5 IDoV= 1 UseB2=F ITyADJ=14
 ICtDFT=  3500011 ScaDFX=  1.000000  1.000000  1.000000  1.000000
 FoFCou: FMM=F IPFlag=           0 FMFlag=      100000 FMFlg1=           0
         NFxFlg=           0 DoJE=T BraDBF=F KetDBF=T FulRan=T
         wScrn=  0.000000 ICntrl=       500 IOpCl=  0 I1Cent=   200000004 NGrid=           0
         NMat0=    1 NMatS0=      1 NMatT0=    0 NMatD0=    1 NMtDS0=    0 NMtDT0=    0
 Petite list used in FoFCou.
 Harris En= -733.390347824989    
 JPrj=0 DoOrth=F DoCkMO=F.
 Leave Link  401 at Thu Jan  5 14:58:49 2023, MaxMem=  1342177280 cpu:              25.8 elap:               0.6
 (Enter /shared/gaussian/g16.b01/AVX2/g16/l502.exe)
 Integral symmetry usage will be decided dynamically.
 Closed shell SCF:
 Using DIIS extrapolation, IDIIS=  1040.
 NGot=  1342177280 LenX=  1341860947 LenY=  1341713817
 Requested convergence on RMS density matrix=1.00D-08 within 128 cycles.
 Requested convergence on MAX density matrix=1.00D-06.
 Requested convergence on             energy=1.00D-06.
 No special actions if energy rises.
 Fock matrices will be formed incrementally for  20 cycles.

 Cycle   1  Pass 1  IDiag  1:
 FoFJK:  IHMeth= 1 ICntrl=       0 DoSepK=T KAlg= 0 I1Cent=           0 FoldK=F
 IRaf=         1 NMat=       1 IRICut=       1 DoRegI=T DoRafI=F ISym2E= 0 IDoP0=0 IntGTp=1.
 FoFCou: FMM=F IPFlag=           0 FMFlag=      100000 FMFlg1=           0
         NFxFlg=           0 DoJE=T BraDBF=F KetDBF=F FulRan=T
         wScrn=  0.000000 ICntrl=       500 IOpCl=  0 I1Cent=           0 NGrid=           0
         NMat0=    1 NMatS0=      1 NMatT0=    0 NMatD0=    1 NMtDS0=    0 NMtDT0=    0
 Symmetry not used in FoFCou.
 Inv3:  Mode=1 IEnd=    15608883.
 Iteration    1 A*A^-1 deviation from unit magnitude is 3.33D-15 for   1630.
 Iteration    1 A*A^-1 deviation from orthogonality  is 2.16D-15 for   1659    685.
 Iteration    1 A^-1*A deviation from unit magnitude is 3.33D-15 for   1630.
 Iteration    1 A^-1*A deviation from orthogonality  is 1.17D-13 for   1443   1357.
 E= -759.733593705000    
 DIIS: error= 5.40D-02 at cycle   1 NSaved=   1.
 NSaved= 1 IEnMin= 1 EnMin= -759.733593705000     IErMin= 1 ErrMin= 5.40D-02
 ErrMax= 5.40D-02  0.00D+00 EMaxC= 1.00D-01 BMatC= 1.14D+00 BMatP= 1.14D+00
 IDIUse=3 WtCom= 4.60D-01 WtEn= 5.40D-01
 Coeff-Com:  0.100D+01
 Coeff-En:   0.100D+01
 Coeff:      0.100D+01
 Gap=     0.309 Goal=   None    Shift=    0.000
 GapD=    0.309 DampG=1.000 DampE=0.500 DampFc=0.5000 IDamp=-1.
 Damping current iteration by 5.00D-01
 RMSDP=8.48D-03 MaxDP=1.43D+00              OVMax= 1.29D-01

 Cycle   2  Pass 1  IDiag  1:
 RMSU=  2.89D-03    CP:  8.66D-01
 E= -759.810862702390     Delta-E=       -0.077268997390 Rises=F Damp=T
 DIIS: error= 2.57D-02 at cycle   2 NSaved=   2.
 NSaved= 2 IEnMin= 2 EnMin= -759.810862702390     IErMin= 2 ErrMin= 2.57D-02
 ErrMax= 2.57D-02  0.00D+00 EMaxC= 1.00D-01 BMatC= 2.38D-01 BMatP= 1.14D+00
 IDIUse=3 WtCom= 7.43D-01 WtEn= 2.57D-01
 Coeff-Com: -0.682D+00 0.168D+01
 Coeff-En:   0.000D+00 0.100D+01
 Coeff:     -0.507D+00 0.151D+01
 Gap=     0.336 Goal=   None    Shift=    0.000
 RMSDP=4.19D-03 MaxDP=5.56D-01 DE=-7.73D-02 OVMax= 1.08D-01

 Cycle   3  Pass 1  IDiag  1:
 RMSU=  1.84D-03    CP:  7.26D-01  1.66D+00
 E= -759.859758548452     Delta-E=       -0.048895846062 Rises=F Damp=F
 DIIS: error= 1.06D-02 at cycle   3 NSaved=   3.
 NSaved= 3 IEnMin= 3 EnMin= -759.859758548452     IErMin= 3 ErrMin= 1.06D-02
 ErrMax= 1.06D-02  0.00D+00 EMaxC= 1.00D-01 BMatC= 3.67D-02 BMatP= 2.38D-01
 IDIUse=3 WtCom= 8.94D-01 WtEn= 1.06D-01
 Coeff-Com: -0.356D+00 0.767D+00 0.588D+00
 Coeff-En:   0.000D+00 0.000D+00 0.100D+01
 Coeff:     -0.318D+00 0.686D+00 0.632D+00
 Gap=     0.303 Goal=   None    Shift=    0.000
 RMSDP=1.02D-03 MaxDP=9.73D-02 DE=-4.89D-02 OVMax= 5.64D-02

 Cycle   4  Pass 1  IDiag  1:
 RMSU=  4.46D-04    CP:  7.21D-01  1.89D+00  6.61D-01
 E= -759.888183527553     Delta-E=       -0.028424979101 Rises=F Damp=F
 DIIS: error= 3.46D-03 at cycle   4 NSaved=   4.
 NSaved= 4 IEnMin= 4 EnMin= -759.888183527553     IErMin= 4 ErrMin= 3.46D-03
 ErrMax= 3.46D-03  0.00D+00 EMaxC= 1.00D-01 BMatC= 3.69D-03 BMatP= 3.67D-02
 IDIUse=3 WtCom= 9.65D-01 WtEn= 3.46D-02
 Coeff-Com: -0.170D+00 0.361D+00 0.364D+00 0.445D+00
 Coeff-En:   0.000D+00 0.000D+00 0.000D+00 0.100D+01
 Coeff:     -0.164D+00 0.348D+00 0.351D+00 0.464D+00
 Gap=     0.300 Goal=   None    Shift=    0.000
 RMSDP=3.37D-04 MaxDP=4.01D-02 DE=-2.84D-02 OVMax= 1.26D-02

 Cycle   5  Pass 1  IDiag  1:
 RMSU=  1.52D-04    CP:  7.13D-01  1.87D+00  7.56D-01  6.78D-01
 E= -759.890781028152     Delta-E=       -0.002597500599 Rises=F Damp=F
 DIIS: error= 5.77D-04 at cycle   5 NSaved=   5.
 NSaved= 5 IEnMin= 5 EnMin= -759.890781028152     IErMin= 5 ErrMin= 5.77D-04
 ErrMax= 5.77D-04  0.00D+00 EMaxC= 1.00D-01 BMatC= 7.77D-05 BMatP= 3.69D-03
 IDIUse=3 WtCom= 9.94D-01 WtEn= 5.77D-03
 Coeff-Com: -0.344D-01 0.723D-01 0.889D-01 0.185D+00 0.688D+00
 Coeff-En:   0.000D+00 0.000D+00 0.000D+00 0.000D+00 0.100D+01
 Coeff:     -0.343D-01 0.719D-01 0.884D-01 0.184D+00 0.690D+00
 Gap=     0.300 Goal=   None    Shift=    0.000
 RMSDP=8.41D-05 MaxDP=7.31D-03 DE=-2.60D-03 OVMax= 3.82D-03

 Cycle   6  Pass 1  IDiag  1:
 RMSU=  4.24D-05    CP:  7.12D-01  1.89D+00  7.66D-01  7.79D-01  9.47D-01
 E= -759.890843246613     Delta-E=       -0.000062218460 Rises=F Damp=F
 DIIS: error= 2.59D-04 at cycle   6 NSaved=   6.
 NSaved= 6 IEnMin= 6 EnMin= -759.890843246613     IErMin= 6 ErrMin= 2.59D-04
 ErrMax= 2.59D-04  0.00D+00 EMaxC= 1.00D-01 BMatC= 1.39D-05 BMatP= 7.77D-05
 IDIUse=3 WtCom= 9.97D-01 WtEn= 2.59D-03
 Coeff-Com:  0.130D-01-0.279D-01-0.204D-01 0.961D-03 0.331D+00 0.703D+00
 Coeff-En:   0.000D+00 0.000D+00 0.000D+00 0.000D+00 0.000D+00 0.100D+01
 Coeff:      0.129D-01-0.278D-01-0.204D-01 0.959D-03 0.331D+00 0.704D+00
 Gap=     0.300 Goal=   None    Shift=    0.000
 RMSDP=4.13D-05 MaxDP=4.75D-03 DE=-6.22D-05 OVMax= 2.03D-03

 Cycle   7  Pass 1  IDiag  1:
 RMSU=  1.54D-05    CP:  7.10D-01  1.89D+00  7.74D-01  7.90D-01  1.05D+00
                    CP:  9.48D-01
 E= -759.890858596102     Delta-E=       -0.000015349489 Rises=F Damp=F
 DIIS: error= 6.25D-05 at cycle   7 NSaved=   7.
 NSaved= 7 IEnMin= 7 EnMin= -759.890858596102     IErMin= 7 ErrMin= 6.25D-05
 ErrMax= 6.25D-05  0.00D+00 EMaxC= 1.00D-01 BMatC= 1.42D-06 BMatP= 1.39D-05
 IDIUse=1 WtCom= 1.00D+00 WtEn= 0.00D+00
 Coeff-Com:  0.898D-02-0.190D-01-0.182D-01-0.258D-01 0.505D-01 0.270D+00
 Coeff-Com:  0.733D+00
 Coeff:      0.898D-02-0.190D-01-0.182D-01-0.258D-01 0.505D-01 0.270D+00
 Coeff:      0.733D+00
 Gap=     0.300 Goal=   None    Shift=    0.000
 RMSDP=1.17D-05 MaxDP=1.30D-03 DE=-1.53D-05 OVMax= 5.88D-04

 Cycle   8  Pass 1  IDiag  1:
 RMSU=  5.29D-06    CP:  7.10D-01  1.89D+00  7.76D-01  7.94D-01  1.09D+00
                    CP:  1.02D+00  1.09D+00
 E= -759.890860482116     Delta-E=       -0.000001886014 Rises=F Damp=F
 DIIS: error= 3.66D-05 at cycle   8 NSaved=   8.
 NSaved= 8 IEnMin= 8 EnMin= -759.890860482116     IErMin= 8 ErrMin= 3.66D-05
 ErrMax= 3.66D-05  0.00D+00 EMaxC= 1.00D-01 BMatC= 2.47D-07 BMatP= 1.42D-06
 IDIUse=1 WtCom= 1.00D+00 WtEn= 0.00D+00
 Coeff-Com:  0.126D-02-0.261D-02-0.374D-02-0.130D-01-0.341D-01-0.977D-03
 Coeff-Com:  0.308D+00 0.745D+00
 Coeff:      0.126D-02-0.261D-02-0.374D-02-0.130D-01-0.341D-01-0.977D-03
 Coeff:      0.308D+00 0.745D+00
 Gap=     0.300 Goal=   None    Shift=    0.000
 RMSDP=5.52D-06 MaxDP=5.00D-04 DE=-1.89D-06 OVMax= 4.24D-04

 Cycle   9  Pass 1  IDiag  1:
 RMSU=  3.03D-06    CP:  7.10D-01  1.89D+00  7.76D-01  7.94D-01  1.11D+00
                    CP:  1.04D+00  1.25D+00  1.08D+00
 E= -759.890860832663     Delta-E=       -0.000000350547 Rises=F Damp=F
 DIIS: error= 1.50D-05 at cycle   9 NSaved=   9.
 NSaved= 9 IEnMin= 9 EnMin= -759.890860832663     IErMin= 9 ErrMin= 1.50D-05
 ErrMax= 1.50D-05  0.00D+00 EMaxC= 1.00D-01 BMatC= 3.56D-08 BMatP= 2.47D-07
 IDIUse=1 WtCom= 1.00D+00 WtEn= 0.00D+00
 Coeff-Com: -0.995D-03 0.213D-02 0.152D-02-0.162D-02-0.189D-01-0.389D-01
 Coeff-Com:  0.798D-02 0.305D+00 0.744D+00
 Coeff:     -0.995D-03 0.213D-02 0.152D-02-0.162D-02-0.189D-01-0.389D-01
 Coeff:      0.798D-02 0.305D+00 0.744D+00
 Gap=     0.300 Goal=   None    Shift=    0.000
 RMSDP=1.80D-06 MaxDP=1.76D-04 DE=-3.51D-07 OVMax= 1.80D-04

 Cycle  10  Pass 1  IDiag  1:
 RMSU=  8.45D-07    CP:  7.10D-01  1.89D+00  7.76D-01  7.93D-01  1.11D+00
                    CP:  1.05D+00  1.28D+00  1.21D+00  1.10D+00
 E= -759.890860881256     Delta-E=       -0.000000048593 Rises=F Damp=F
 DIIS: error= 4.68D-06 at cycle  10 NSaved=  10.
 NSaved=10 IEnMin=10 EnMin= -759.890860881256     IErMin=10 ErrMin= 4.68D-06
 ErrMax= 4.68D-06  0.00D+00 EMaxC= 1.00D-01 BMatC= 7.56D-09 BMatP= 3.56D-08
 IDIUse=1 WtCom= 1.00D+00 WtEn= 0.00D+00
 Coeff-Com: -0.592D-03 0.125D-02 0.117D-02 0.104D-02-0.268D-02-0.179D-01
 Coeff-Com: -0.548D-01 0.128D-01 0.366D+00 0.694D+00
 Coeff:     -0.592D-03 0.125D-02 0.117D-02 0.104D-02-0.268D-02-0.179D-01
 Coeff:     -0.548D-01 0.128D-01 0.366D+00 0.694D+00
 Gap=     0.300 Goal=   None    Shift=    0.000
 RMSDP=8.07D-07 MaxDP=5.90D-05 DE=-4.86D-08 OVMax= 5.27D-05

 Cycle  11  Pass 1  IDiag  1:
 RMSU=  3.63D-07    CP:  7.10D-01  1.89D+00  7.76D-01  7.92D-01  1.11D+00
                    CP:  1.05D+00  1.30D+00  1.24D+00  1.23D+00  9.79D-01
 E= -759.890860890389     Delta-E=       -0.000000009132 Rises=F Damp=F
 DIIS: error= 2.03D-06 at cycle  11 NSaved=  11.
 NSaved=11 IEnMin=11 EnMin= -759.890860890389     IErMin=11 ErrMin= 2.03D-06
 ErrMax= 2.03D-06  0.00D+00 EMaxC= 1.00D-01 BMatC= 3.73D-10 BMatP= 7.56D-09
 IDIUse=1 WtCom= 1.00D+00 WtEn= 0.00D+00
 Coeff-Com: -0.963D-04 0.203D-03 0.236D-03 0.446D-03 0.936D-03-0.252D-02
 Coeff-Com: -0.218D-01-0.184D-01 0.741D-01 0.214D+00 0.753D+00
 Coeff:     -0.963D-04 0.203D-03 0.236D-03 0.446D-03 0.936D-03-0.252D-02
 Coeff:     -0.218D-01-0.184D-01 0.741D-01 0.214D+00 0.753D+00
 Gap=     0.300 Goal=   None    Shift=    0.000
 RMSDP=2.13D-07 MaxDP=1.92D-05 DE=-9.13D-09 OVMax= 2.07D-05

 Cycle  12  Pass 1  IDiag  1:
 RMSU=  1.00D-07    CP:  7.10D-01  1.89D+00  7.76D-01  7.92D-01  1.11D+00
                    CP:  1.05D+00  1.31D+00  1.24D+00  1.25D+00  1.04D+00
                    CP:  1.10D+00
 E= -759.890860890953     Delta-E=       -0.000000000564 Rises=F Damp=F
 DIIS: error= 4.80D-07 at cycle  12 NSaved=  12.
 NSaved=12 IEnMin=12 EnMin= -759.890860890953     IErMin=12 ErrMin= 4.80D-07
 ErrMax= 4.80D-07  0.00D+00 EMaxC= 1.00D-01 BMatC= 1.06D-10 BMatP= 3.73D-10
 IDIUse=1 WtCom= 1.00D+00 WtEn= 0.00D+00
 Coeff-Com:  0.412D-04-0.884D-04-0.541D-04 0.753D-04 0.893D-03 0.183D-02
 Coeff-Com: -0.162D-02-0.943D-02-0.281D-01-0.396D-01 0.338D+00 0.738D+00
 Coeff:      0.412D-04-0.884D-04-0.541D-04 0.753D-04 0.893D-03 0.183D-02
 Coeff:     -0.162D-02-0.943D-02-0.281D-01-0.396D-01 0.338D+00 0.738D+00
 Gap=     0.300 Goal=   None    Shift=    0.000
 RMSDP=9.52D-08 MaxDP=7.04D-06 DE=-5.64D-10 OVMax= 6.47D-06

 Cycle  13  Pass 1  IDiag  1:
 RMSU=  3.91D-08    CP:  7.10D-01  1.89D+00  7.76D-01  7.92D-01  1.11D+00
                    CP:  1.05D+00  1.31D+00  1.25D+00  1.27D+00  1.06D+00
                    CP:  1.22D+00  1.12D+00
 E= -759.890860891104     Delta-E=       -0.000000000151 Rises=F Damp=F
 DIIS: error= 1.76D-07 at cycle  13 NSaved=  13.
 NSaved=13 IEnMin=13 EnMin= -759.890860891104     IErMin=13 ErrMin= 1.76D-07
 ErrMax= 1.76D-07  0.00D+00 EMaxC= 1.00D-01 BMatC= 4.85D-12 BMatP= 1.06D-10
 IDIUse=1 WtCom= 1.00D+00 WtEn= 0.00D+00
 Coeff-Com:  0.190D-04-0.403D-04-0.349D-04-0.250D-04 0.117D-03 0.719D-03
 Coeff-Com:  0.156D-02-0.292D-04-0.140D-01-0.322D-01 0.202D-01 0.154D+00
 Coeff-Com:  0.869D+00
 Coeff:      0.190D-04-0.403D-04-0.349D-04-0.250D-04 0.117D-03 0.719D-03
 Coeff:      0.156D-02-0.292D-04-0.140D-01-0.322D-01 0.202D-01 0.154D+00
 Coeff:      0.869D+00
 Gap=     0.300 Goal=   None    Shift=    0.000
 RMSDP=2.65D-08 MaxDP=2.01D-06 DE=-1.51D-10 OVMax= 2.34D-06

 Cycle  14  Pass 1  IDiag  1:
 RMSU=  1.44D-08    CP:  7.10D-01  1.89D+00  7.76D-01  7.92D-01  1.11D+00
                    CP:  1.05D+00  1.31D+00  1.25D+00  1.27D+00  1.07D+00
                    CP:  1.26D+00  1.17D+00  1.19D+00
 E= -759.890860891105     Delta-E=       -0.000000000001 Rises=F Damp=F
 DIIS: error= 8.23D-08 at cycle  14 NSaved=  14.
 NSaved=14 IEnMin=14 EnMin= -759.890860891105     IErMin=14 ErrMin= 8.23D-08
 ErrMax= 8.23D-08  0.00D+00 EMaxC= 1.00D-01 BMatC= 1.37D-12 BMatP= 4.85D-12
 IDIUse=1 WtCom= 1.00D+00 WtEn= 0.00D+00
 Coeff-Com:  0.244D-05-0.500D-05-0.753D-05-0.214D-04-0.781D-04 0.613D-04
 Coeff-Com:  0.825D-03 0.142D-02-0.168D-02-0.732D-02-0.371D-01-0.506D-01
 Coeff-Com:  0.375D+00 0.720D+00
 Coeff:      0.244D-05-0.500D-05-0.753D-05-0.214D-04-0.781D-04 0.613D-04
 Coeff:      0.825D-03 0.142D-02-0.168D-02-0.732D-02-0.371D-01-0.506D-01
 Coeff:      0.375D+00 0.720D+00
 Gap=     0.300 Goal=   None    Shift=    0.000
 RMSDP=9.03D-09 MaxDP=6.09D-07 DE=-1.14D-12 OVMax= 8.46D-07

 Error on total polarization charges =  0.01625
 SCF Done:  E(RCAM-B3LYP) =  -759.890860891     A.U. after   14 cycles
            NFock= 14  Conv=0.90D-08     -V/T= 2.0031
 KE= 7.575792157718D+02 PE=-3.532496864760D+03 EE= 1.141201942497D+03
 Leave Link  502 at Thu Jan  5 14:59:11 2023, MaxMem=  1342177280 cpu:            1040.3 elap:              21.7
 (Enter /shared/gaussian/g16.b01/AVX2/g16/l801.exe)
 DoSCS=F DFT=T ScalE2(SS,OS)=  1.000000  1.000000
 ExpMin= 4.38D-02 ExpMax= 8.59D+03 ExpMxC= 1.30D+03 IAcc=3 IRadAn=         5 AccDes= 0.00D+00
 HarFok:  IExCor=  205 AccDes= 0.00D+00 IRadAn=         5 IDoV=-2 UseB2=F ITyADJ=14
 ICtDFT= 12500011 ScaDFX=  1.000000  1.000000  1.000000  1.000000
 Largest valence mixing into a core orbital is  4.85D-05
 Largest core mixing into a valence orbital is  1.01D-05
 Range of M.O.s used for correlation:    14   370
 NBasis=   370 NAE=    53 NBE=    53 NFC=    13 NFV=     0
 NROrb=    357 NOA=    40 NOB=    40 NVA=   317 NVB=   317

 **** Warning!!: The largest alpha MO coefficient is  0.12208706D+03

 Leave Link  801 at Thu Jan  5 14:59:11 2023, MaxMem=  1342177280 cpu:               2.9 elap:               0.1
 (Enter /shared/gaussian/g16.b01/AVX2/g16/l914.exe)
 RHF ground state
 Two-electron integrals replicated using symmetry.
 MDV=  1342177280 DFT=T DoStab=F Mixed=T DoRPA=T DoScal=F NonHer=T
 NEqPCM:  Using equilibrium solvation (IEInf=0, Eps=  78.3553, EpsInf=   1.7778)
 Making orbital integer symmetry assigments:
 Orbital symmetries:
       Occupied  (A) (A) (A) (A) (A) (A) (A) (A) (A) (A) (A) (A)
                 (A) (A) (A) (A) (A) (A) (A) (A) (A) (A) (A) (A)
                 (A) (A) (A) (A) (A) (A) (A) (A) (A) (A) (A) (A)
                 (A) (A) (A) (A) (A) (A) (A) (A) (A) (A) (A) (A)
                 (A) (A) (A) (A) (A)
       Virtual   (A) (A) (A) (A) (A) (A) (A) (A) (A) (A) (A) (A)
                 (A) (A) (A) (A) (A) (A) (A) (A) (A) (A) (A) (A)
                 (A) (A) (A) (A) (A) (A) (A) (A) (A) (A) (A) (A)
                 (A) (A) (A) (A) (A) (A) (A) (A) (A) (A) (A) (A)
                 (A) (A) (A) (A) (A) (A) (A) (A) (A) (A) (A) (A)
                 (A) (A) (A) (A) (A) (A) (A) (A) (A) (A) (A) (A)
                 (A) (A) (A) (A) (A) (A) (A) (A) (A) (A) (A) (A)
                 (A) (A) (A) (A) (A) (A) (A) (A) (A) (A) (A) (A)
                 (A) (A) (A) (A) (A) (A) (A) (A) (A) (A) (A) (A)
                 (A) (A) (A) (A) (A) (A) (A) (A) (A) (A) (A) (A)
                 (A) (A) (A) (A) (A) (A) (A) (A) (A) (A) (A) (A)
                 (A) (A) (A) (A) (A) (A) (A) (A) (A) (A) (A) (A)
                 (A) (A) (A) (A) (A) (A) (A) (A) (A) (A) (A) (A)
                 (A) (A) (A) (A) (A) (A) (A) (A) (A) (A) (A) (A)
                 (A) (A) (A) (A) (A) (A) (A) (A) (A) (A) (A) (A)
                 (A) (A) (A) (A) (A) (A) (A) (A) (A) (A) (A) (A)
                 (A) (A) (A) (A) (A) (A) (A) (A) (A) (A) (A) (A)
                 (A) (A) (A) (A) (A) (A) (A) (A) (A) (A) (A) (A)
                 (A) (A) (A) (A) (A) (A) (A) (A) (A) (A) (A) (A)
                 (A) (A) (A) (A) (A) (A) (A) (A) (A) (A) (A) (A)
                 (A) (A) (A) (A) (A) (A) (A) (A) (A) (A) (A) (A)
                 (A) (A) (A) (A) (A) (A) (A) (A) (A) (A) (A) (A)
                 (A) (A) (A) (A) (A) (A) (A) (A) (A) (A) (A) (A)
                 (A) (A) (A) (A) (A) (A) (A) (A) (A) (A) (A) (A)
                 (A) (A) (A) (A) (A) (A) (A) (A) (A) (A) (A) (A)
                 (A) (A) (A) (A) (A) (A) (A) (A) (A) (A) (A) (A)
                 (A) (A) (A) (A) (A)
    40 initial guesses have been made.
 Convergence on wavefunction:    0.000001000000000
 Davidson Disk Diagonalization:  ConvIn= 1.00D-06 SkipCon=T Conv= 1.00D-06.
 Max sub-space:  2000 roots to seek:    40 dimension of matrix:        25360
 Iteration     1 Dimension    40 NMult     0 NNew     40
 CISAX will form    40 AO SS matrices at one time.
 NMat=    40 NSing=    40 JSym2X= 0.
 FoFJK:  IHMeth= 1 ICntrl=       0 DoSepK=T KAlg= 0 I1Cent=           0 FoldK=F
 IRaf=         1 NMat=      80 IRICut=       1 DoRegI=T DoRafI=F ISym2E= 0 IDoP0=3 IntGTp=3.
 FoFCou: FMM=F IPFlag=           0 FMFlag=      100000 FMFlg1=           0
         NFxFlg=           0 DoJE=F BraDBF=F KetDBF=F FulRan=T
         wScrn=  0.000000 ICntrl=       500 IOpCl=  0 I1Cent=           0 NGrid=           0
         NMat0=   40 NMatS0=     40 NMatT0=    0 NMatD0=   40 NMtDS0=    0 NMtDT0=    0
 Symmetry not used in FoFCou.
 New state      2 was old state      6
 New state      3 was old state      2
 New state      4 was old state      3
 New state      5 was old state     17
 New state      6 was old state      4
 New state      7 was old state      5
 New state      9 was old state     11
 New state     10 was old state      9
 Excitation Energies [eV] at current iteration:
 Root      1 :     5.754462552794823
 Root      2 :     5.792361153229020
 Root      3 :     6.599453229214658
 Root      4 :     6.925845213994335
 Root      5 :     7.225178051061486
 Root      6 :     7.275747947963508
 Root      7 :     7.384530875300962
 Root      8 :     7.515559441510690
 Root      9 :     7.568016619217374
 Root     10 :     7.685958456891159
 Root     11 :     7.990380310478552
 Root     12 :     8.054910815542822
 Root     13 :     8.087272310667052
 Root     14 :     8.128439599335143
 Root     15 :     8.160313576617455
 Root     16 :     8.271210308238981
 Root     17 :     8.386844459042754
 Root     18 :     8.463256039150963
 Root     19 :     8.519961987109415
 Root     20 :     8.529066724930585
 Root     21 :     8.582175161608728
 Root     22 :     8.608489605046131
 Root     23 :     8.643204522446830
 Root     24 :     8.737198582480218
 Root     25 :     8.776397606172141
 Root     26 :     8.816423516892067
 Root     27 :     8.963413181357700
 Root     28 :     9.067325040859181
 Root     29 :     9.147620046966351
 Root     30 :     9.193696616439674
 Root     31 :     9.213674520140625
 Root     32 :     9.258837459571865
 Root     33 :     9.267883822228733
 Root     34 :     9.416471633406895
 Root     35 :     9.491762559893250
 Root     36 :     9.515878183155392
 Root     37 :     9.565239217060649
 Root     38 :     9.647288451735299
 Root     39 :     9.928546197043769
 Root     40 :     9.956515781598302
 Iteration     2 Dimension    60 NMult    40 NNew     20
 CISAX will form    20 AO SS matrices at one time.
 NMat=    20 NSing=    20 JSym2X= 0.
 Root      1 not converged, maximum delta is    0.055224633936094
 Root      2 not converged, maximum delta is    0.069523557430462
 New state      3 was old state      4
 Root      3 not converged, maximum delta is    0.120550459829428
 New state      4 was old state      3
 Root      4 not converged, maximum delta is    0.038679002657540
 New state      5 was old state      8
 Root      5 not converged, maximum delta is    0.149075401471055
 New state      6 was old state      5
 Root      6 not converged, maximum delta is    0.134531643877277
 New state      7 was old state      6
 Root      7 not converged, maximum delta is    0.068860029089361
 New state      8 was old state      7
 Root      8 not converged, maximum delta is    0.052734703524490
 Root      9 not converged, maximum delta is    0.129207662189844
 Root     10 not converged, maximum delta is    0.086568478703432
 Excitation Energies [eV] at current iteration:
 Root      1 :     5.080022155762547   Change is   -0.674440397032275
 Root      2 :     5.541822780899491   Change is   -0.250538372329529
 Root      3 :     6.306812201772145   Change is   -0.619033012222191
 Root      4 :     6.482984143538994   Change is   -0.116469085675664
 Root      5 :     6.798369152319066   Change is   -0.717190289191624
 Root      6 :     6.825402070651921   Change is   -0.399775980409566
 Root      7 :     7.139051606510020   Change is   -0.136696341453488
 Root      8 :     7.258699252140113   Change is   -0.125831623160849
 Root      9 :     7.422020765650783   Change is   -0.145995853566592
 Root     10 :     7.538663518820367   Change is   -0.147294938070792
 Iteration     3 Dimension    80 NMult    60 NNew     20
 CISAX will form    20 AO SS matrices at one time.
 NMat=    20 NSing=    20 JSym2X= 0.
 Root      1 not converged, maximum delta is    0.017916410837484
 Root      2 not converged, maximum delta is    0.008670022080674
 Root      3 not converged, maximum delta is    0.010732670682862
 Root      4 not converged, maximum delta is    0.003410328962642
 Root      5 not converged, maximum delta is    0.027086151123396
 Root      6 not converged, maximum delta is    0.034417875235275
 Root      7 not converged, maximum delta is    0.007061751326474
 Root      8 not converged, maximum delta is    0.008016678312183
 Root      9 not converged, maximum delta is    0.030573882677488
 Root     10 not converged, maximum delta is    0.064286062737928
 Excitation Energies [eV] at current iteration:
 Root      1 :     5.037763081568350   Change is   -0.042259074194197
 Root      2 :     5.534290633933990   Change is   -0.007532146965501
 Root      3 :     6.276443415180874   Change is   -0.030368786591270
 Root      4 :     6.481184655177633   Change is   -0.001799488361361
 Root      5 :     6.767296433158813   Change is   -0.031072719160253
 Root      6 :     6.792997014795133   Change is   -0.032405055856788
 Root      7 :     7.134158424896306   Change is   -0.004893181613714
 Root      8 :     7.253932195976206   Change is   -0.004767056163908
 Root      9 :     7.402148975148447   Change is   -0.019871790502336
 Root     10 :     7.526363946087234   Change is   -0.012299572733133
 Iteration     4 Dimension   100 NMult    80 NNew     20
 CISAX will form    20 AO SS matrices at one time.
 NMat=    20 NSing=    20 JSym2X= 0.
 Root      1 not converged, maximum delta is    0.002463764448442
 Root      2 not converged, maximum delta is    0.001932460267066
 Root      3 not converged, maximum delta is    0.004150797058530
 Root      4 not converged, maximum delta is    0.000443936742195
 Root      5 not converged, maximum delta is    0.003163683085218
 Root      6 not converged, maximum delta is    0.007738295634955
 Root      7 not converged, maximum delta is    0.001232186243670
 Root      8 not converged, maximum delta is    0.001802727868242
 Root      9 not converged, maximum delta is    0.013933360251882
 Root     10 not converged, maximum delta is    0.077630786300739
 Excitation Energies [eV] at current iteration:
 Root      1 :     5.034869648877189   Change is   -0.002893432691162
 Root      2 :     5.533451899716013   Change is   -0.000838734217977
 Root      3 :     6.272827533105027   Change is   -0.003615882075847
 Root      4 :     6.481115415500753   Change is   -0.000069239676880
 Root      5 :     6.764301929802509   Change is   -0.002994503356304
 Root      6 :     6.790212872592451   Change is   -0.002784142202681
 Root      7 :     7.133905227416108   Change is   -0.000253197480199
 Root      8 :     7.253593747655627   Change is   -0.000338448320579
 Root      9 :     7.399020704838999   Change is   -0.003128270309448
 Root     10 :     7.518373955058984   Change is   -0.007989991028250
 Iteration     5 Dimension   120 NMult   100 NNew     20
 CISAX will form    20 AO SS matrices at one time.
 NMat=    20 NSing=    20 JSym2X= 0.
 Root      1 not converged, maximum delta is    0.000503891382276
 Root      2 not converged, maximum delta is    0.000232976829500
 Root      3 not converged, maximum delta is    0.000836140962003
 Root      4 not converged, maximum delta is    0.000114935198550
 Root      5 not converged, maximum delta is    0.001187772580673
 Root      6 not converged, maximum delta is    0.001047688046741
 Root      7 not converged, maximum delta is    0.000598886113143
 Root      8 not converged, maximum delta is    0.000568521158820
 Root      9 not converged, maximum delta is    0.001988118888012
 Root     10 not converged, maximum delta is    0.023333845486512
 Excitation Energies [eV] at current iteration:
 Root      1 :     5.034712618518103   Change is   -0.000157030359085
 Root      2 :     5.533422181872670   Change is   -0.000029717843344
 Root      3 :     6.272571670108020   Change is   -0.000255862997007
 Root      4 :     6.481110864402358   Change is   -0.000004551098395
 Root      5 :     6.763971775406589   Change is   -0.000330154395920
 Root      6 :     6.790045538164061   Change is   -0.000167334428390
 Root      7 :     7.133882879147963   Change is   -0.000022348268144
 Root      8 :     7.253559419069811   Change is   -0.000034328585815
 Root      9 :     7.398801334368432   Change is   -0.000219370470566
 Root     10 :     7.516155181627437   Change is   -0.002218773431547
 Iteration     6 Dimension   140 NMult   120 NNew     20
 CISAX will form    20 AO SS matrices at one time.
 NMat=    20 NSing=    20 JSym2X= 0.
 Root      1 not converged, maximum delta is    0.000118299663755
 Root      2 not converged, maximum delta is    0.000047038705167
 Root      3 not converged, maximum delta is    0.000422631397899
 Root      4 not converged, maximum delta is    0.000047358803276
 Root      5 not converged, maximum delta is    0.000700773591944
 Root      6 not converged, maximum delta is    0.000148923068383
 Root      7 not converged, maximum delta is    0.000249783613808
 Root      8 not converged, maximum delta is    0.000404485798653
 Root      9 not converged, maximum delta is    0.000372054338598
 Root     10 not converged, maximum delta is    0.003475686066756
 Excitation Energies [eV] at current iteration:
 Root      1 :     5.034705404040948   Change is   -0.000007214477155
 Root      2 :     5.533421078365924   Change is   -0.000001103506746
 Root      3 :     6.272552232210012   Change is   -0.000019437898008
 Root      4 :     6.481110502640315   Change is   -0.000000361762043
 Root      5 :     6.763935395481372   Change is   -0.000036379925217
 Root      6 :     6.790033479814786   Change is   -0.000012058349275
 Root      7 :     7.133879301082978   Change is   -0.000003578064985
 Root      8 :     7.253552455045444   Change is   -0.000006964024367
 Root      9 :     7.398785080383167   Change is   -0.000016253985266
 Root     10 :     7.515866903035231   Change is   -0.000288278592207
 Iteration     7 Dimension   160 NMult   140 NNew     20
 CISAX will form    20 AO SS matrices at one time.
 NMat=    20 NSing=    20 JSym2X= 0.
 Root      1 not converged, maximum delta is    0.000019039115612
 Root      2 not converged, maximum delta is    0.000011907091551
 Root      3 not converged, maximum delta is    0.000143351951878
 Root      4 not converged, maximum delta is    0.000017468396545
 Root      5 not converged, maximum delta is    0.000213208986209
 Root      6 not converged, maximum delta is    0.000041432988047
 Root      7 not converged, maximum delta is    0.000076134270693
 Root      8 not converged, maximum delta is    0.000104743013906
 Root      9 not converged, maximum delta is    0.000093981524466
 Root     10 not converged, maximum delta is    0.001059560287764
 Excitation Energies [eV] at current iteration:
 Root      1 :     5.034705157361658   Change is   -0.000000246679290
 Root      2 :     5.533421029625479   Change is   -0.000000048740445
 Root      3 :     6.272550654998788   Change is   -0.000001577211224
 Root      4 :     6.481110463629943   Change is   -0.000000039010372
 Root      5 :     6.763931311817582   Change is   -0.000004083663790
 Root      6 :     6.790032740136668   Change is   -0.000000739678119
 Root      7 :     7.133878881857101   Change is   -0.000000419225876
 Root      8 :     7.253551396003751   Change is   -0.000001059041692
 Root      9 :     7.398783768736291   Change is   -0.000001311646876
 Root     10 :     7.515820989341051   Change is   -0.000045913694180
 Iteration     8 Dimension   180 NMult   160 NNew     20
 CISAX will form    20 AO SS matrices at one time.
 NMat=    20 NSing=    20 JSym2X= 0.
 Root      1 not converged, maximum delta is    0.000003454123032
 Root      2 not converged, maximum delta is    0.000001262008411
 Root      3 not converged, maximum delta is    0.000019985975445
 Root      4 not converged, maximum delta is    0.000004839717775
 Root      5 not converged, maximum delta is    0.000043929543768
 Root      6 not converged, maximum delta is    0.000011342818486
 Root      7 not converged, maximum delta is    0.000030514132401
 Root      8 not converged, maximum delta is    0.000019632823176
 Root      9 not converged, maximum delta is    0.000031162661194
 Root     10 not converged, maximum delta is    0.000245588512167
 Excitation Energies [eV] at current iteration:
 Root      1 :     5.034705148713525   Change is   -0.000000008648133
 Root      2 :     5.533421027560791   Change is   -0.000000002064688
 Root      3 :     6.272550546799590   Change is   -0.000000108199198
 Root      4 :     6.481110460672083   Change is   -0.000000002957860
 Root      5 :     6.763930960386159   Change is   -0.000000351431423
 Root      6 :     6.790032690281840   Change is   -0.000000049854828
 Root      7 :     7.133878826086779   Change is   -0.000000055770323
 Root      8 :     7.253551308835616   Change is   -0.000000087168136
 Root      9 :     7.398783642739263   Change is   -0.000000125997028
 Root     10 :     7.515815843481221   Change is   -0.000005145859829
 Iteration     9 Dimension   200 NMult   180 NNew     20
 CISAX will form    20 AO SS matrices at one time.
 NMat=    20 NSing=    20 JSym2X= 0.
 Root      1 has converged.
 Root      2 has converged.
 Root      3 not converged, maximum delta is    0.000005316970618
 Root      4 has converged.
 Root      5 not converged, maximum delta is    0.000010991313850
 Root      6 not converged, maximum delta is    0.000002171742992
 Root      7 not converged, maximum delta is    0.000009036351254
 Root      8 not converged, maximum delta is    0.000005289486745
 Root      9 not converged, maximum delta is    0.000009309115166
 Root     10 not converged, maximum delta is    0.000064435278514
 Excitation Energies [eV] at current iteration:
 Root      1 :     5.034705148396220   Change is   -0.000000000317305
 Root      2 :     5.533421027468650   Change is   -0.000000000092140
 Root      3 :     6.272550539982981   Change is   -0.000000006816609
 Root      4 :     6.481110460500707   Change is   -0.000000000171376
 Root      5 :     6.763930932438953   Change is   -0.000000027947207
 Root      6 :     6.790032686787528   Change is   -0.000000003494312
 Root      7 :     7.133878818778089   Change is   -0.000000007308689
 Root      8 :     7.253551302626536   Change is   -0.000000006209080
 Root      9 :     7.398783629574019   Change is   -0.000000013165243
 Root     10 :     7.515815356515231   Change is   -0.000000486965991
 Iteration    10 Dimension   214 NMult   200 NNew     14
 CISAX will form    14 AO SS matrices at one time.
 NMat=    14 NSing=    14 JSym2X= 0.
 Root      1 has converged.
 Root      2 has converged.
 Root      3 has converged.
 Root      4 has converged.
 Root      5 not converged, maximum delta is    0.000001555533031
 Root      6 has converged.
 Root      7 not converged, maximum delta is    0.000001512510767
 Root      8 not converged, maximum delta is    0.000001416517889
 Root      9 not converged, maximum delta is    0.000002336965489
 Root     10 not converged, maximum delta is    0.000031203186019
 Excitation Energies [eV] at current iteration:
 Root      1 :     5.034705148389999   Change is   -0.000000000006221
 Root      2 :     5.533421027467581   Change is   -0.000000000001069
 Root      3 :     6.272550539644508   Change is   -0.000000000338473
 Root      4 :     6.481110460496559   Change is   -0.000000000004148
 Root      5 :     6.763930930750679   Change is   -0.000000001688273
 Root      6 :     6.790032686546258   Change is   -0.000000000241270
 Root      7 :     7.133878818183693   Change is   -0.000000000594396
 Root      8 :     7.253551302178570   Change is   -0.000000000447966
 Root      9 :     7.398783628391592   Change is   -0.000000001182427
 Root     10 :     7.515815311587983   Change is   -0.000000044927248
 Iteration    11 Dimension   224 NMult   214 NNew     10
 CISAX will form    10 AO SS matrices at one time.
 NMat=    10 NSing=    10 JSym2X= 0.
 Root      1 has converged.
 Root      2 has converged.
 Root      3 has converged.
 Root      4 has converged.
 Root      5 has converged.
 Root      6 has converged.
 Root      7 has converged.
 Root      8 has converged.
 Root      9 has converged.
 Root     10 not converged, maximum delta is    0.000011084359143
 Excitation Energies [eV] at current iteration:
 Root      1 :     5.034705148389754   Change is   -0.000000000000245
 Root      2 :     5.533421027467551   Change is   -0.000000000000030
 Root      3 :     6.272550539639016   Change is   -0.000000000005492
 Root      4 :     6.481110460496115   Change is   -0.000000000000443
 Root      5 :     6.763930930646862   Change is   -0.000000000103818
 Root      6 :     6.790032686545133   Change is   -0.000000000001125
 Root      7 :     7.133878818142096   Change is   -0.000000000041599
 Root      8 :     7.253551302144095   Change is   -0.000000000034475
 Root      9 :     7.398783628284638   Change is   -0.000000000106953
 Root     10 :     7.515815306890073   Change is   -0.000000004697910
 Iteration    12 Dimension   226 NMult   224 NNew      2
 CISAX will form     2 AO SS matrices at one time.
 NMat=     2 NSing=     2 JSym2X= 0.
 Root      1 has converged.
 Root      2 has converged.
 Root      3 has converged.
 Root      4 has converged.
 Root      5 has converged.
 Root      6 has converged.
 Root      7 has converged.
 Root      8 has converged.
 Root      9 has converged.
 Root     10 not converged, maximum delta is    0.000002793910445
 Excitation Energies [eV] at current iteration:
 Root      1 :     5.034705148389542   Change is   -0.000000000000212
 Root      2 :     5.533421027467506   Change is   -0.000000000000045
 Root      3 :     6.272550539638911   Change is   -0.000000000000105
 Root      4 :     6.481110460496040   Change is   -0.000000000000076
 Root      5 :     6.763930930645779   Change is   -0.000000000001082
 Root      6 :     6.790032686545024   Change is   -0.000000000000110
 Root      7 :     7.133878818142083   Change is   -0.000000000000012
 Root      8 :     7.253551302144004   Change is   -0.000000000000091
 Root      9 :     7.398783628284371   Change is   -0.000000000000267
 Root     10 :     7.515815306415345   Change is   -0.000000000474728
 Iteration    13 Dimension   228 NMult   226 NNew      2
 CISAX will form     2 AO SS matrices at one time.
 NMat=     2 NSing=     2 JSym2X= 0.
 Root      1 has converged.
 Root      2 has converged.
 Root      3 has converged.
 Root      4 has converged.
 Root      5 has converged.
 Root      6 has converged.
 Root      7 has converged.
 Root      8 has converged.
 Root      9 has converged.
 Root     10 has converged.
 Excitation Energies [eV] at current iteration:
 Root      1 :     5.034705148389574   Change is    0.000000000000032
 Root      2 :     5.533421027467551   Change is    0.000000000000045
 Root      3 :     6.272550539638911   Change is    0.000000000000000
 Root      4 :     6.481110460496052   Change is    0.000000000000013
 Root      5 :     6.763930930645573   Change is   -0.000000000000206
 Root      6 :     6.790032686544951   Change is   -0.000000000000073
 Root      7 :     7.133878818142071   Change is   -0.000000000000012
 Root      8 :     7.253551302144015   Change is    0.000000000000011
 Root      9 :     7.398783628284249   Change is   -0.000000000000122
 Root     10 :     7.515815306370762   Change is   -0.000000000044583
 Convergence achieved on expansion vectors.
 ***********************************************************************
 Excited states from <AA,BB:AA,BB> singles matrix:
 ***********************************************************************
 
 1PDM for each excited state written to RWF  633
 Ground to excited state transition densities written to RWF  633
 Ground to excited state transition electric dipole moments (Au):
       state          X           Y           Z        Dip. S.      Osc.
         1        -1.6834      0.4796     -0.0296      3.0647      0.3780
         2         0.0286      0.0074      0.0115      0.0010      0.0001
         3        -0.2258     -1.6053     -0.1402      2.6476      0.4069
         4         0.0029      0.0596     -0.1525      0.0268      0.0043
         5        -0.8148      0.8148      0.0394      1.3293      0.2203
         6        -0.0263      0.0842     -0.0176      0.0081      0.0013
         7         0.0165      0.0180     -0.1235      0.0159      0.0028
         8         0.0272      0.0196     -0.0811      0.0077      0.0014
         9         0.0021      0.0260      0.0711      0.0057      0.0010
        10         0.8925     -0.3992      0.0097      0.9561      0.1760
 Ground to excited state transition velocity dipole moments (Au):
       state          X           Y           Z        Dip. S.      Osc.
         1         0.3110     -0.0914      0.0052      0.1051      0.3787
         2        -0.0060     -0.0018     -0.0093      0.0001      0.0004
         3         0.0467      0.3671      0.0322      0.1380      0.3991
         4        -0.0005     -0.0140      0.0379      0.0016      0.0046
         5         0.1961     -0.1983     -0.0097      0.0779      0.2089
         6         0.0052     -0.0215      0.0061      0.0005      0.0014
         7        -0.0039     -0.0044      0.0311      0.0010      0.0026
         8        -0.0068     -0.0050      0.0205      0.0005      0.0012
         9        -0.0012     -0.0077     -0.0109      0.0002      0.0004
        10        -0.2398      0.1078     -0.0025      0.0691      0.1668
 Ground to excited state transition magnetic dipole moments (Au):
       state          X           Y           Z
         1         0.0417      0.0614     -1.7713
         2        -0.7394     -0.0163      0.0279
         3         0.0662     -0.0724      0.8143
         4         0.0807     -0.2347     -0.0495
         5        -0.0443     -0.0375     -0.5020
         6        -0.2727      0.6943     -0.0374
         7         0.3474      0.3763      0.0312
         8         0.1238      0.1363      0.0094
         9        -0.3595      0.2668     -0.0219
        10        -0.0063      0.0644      0.0848
 Ground to excited state transition velocity quadrupole moments (Au):
       state          XX          YY          ZZ          XY          XZ          YZ
         1         0.2941     -0.3502     -0.0140      0.7086     -0.0002      0.0202
         2         0.0525      0.0085     -0.0039      0.0149      0.0313     -0.0573
         3        -0.3216      1.1000      0.0592      0.5148      0.0346      0.0420
         4        -0.0101     -0.0276      0.0017     -0.0237      0.1999      0.0741
         5        -0.6331     -0.2775      0.0120      0.3019     -0.0327      0.0423
         6         0.0133      0.0602     -0.0090      0.0292     -0.0386     -0.0301
         7         0.0793     -0.0602     -0.0011      0.0204     -0.2681      0.2324
         8         0.0219      0.0600     -0.0417      0.0310     -0.1281      0.0296
         9         0.0379      0.0066     -0.0199     -0.0154     -0.0545     -0.0570
        10         0.1154     -0.1789     -0.1060     -0.1697      0.0670     -0.0513
 <0|del|b> * <b|rxdel|0> + <0|del|b> * <b|delr+rdel|0>
 Rotatory Strengths (R) in cgs (10**-40 erg-esu-cm/Gauss)
       state          XX          YY          ZZ    R(velocity)    E-M Angle
         1       -21.3021     12.1798      2.0643     -2.3527       90.18
         2        -0.5455      8.1063      7.0736      4.8781       59.61
         3         5.3959     22.5525    -19.5414      2.8023       89.48
         4         4.9223     -1.5775      0.7185      1.3544       82.32
         5         4.1107     10.5612     -4.3538      3.4393       88.53
         6       -22.4450     -2.7887    -21.7924    -15.6753      165.32
         7        -1.6822     -2.6256     -1.2574     -1.8551       97.29
         8        -0.6673     -1.9730     -0.9066     -1.1823      109.09
         9        -2.6719      0.7529     -1.6345     -1.1845      103.20
        10        -0.0942     16.8648      4.2995      7.0233       72.93
 1/2[<0|r|b>*<b|rxdel|0> + (<0|rxdel|b>*<b|r|0>)*]
 Rotatory Strengths (R) in cgs (10**-40 erg-esu-cm/Gauss)
       state          XX          YY          ZZ     R(length)
         1        49.5851    -20.8200    -37.0612     -2.7653
         2        14.9658      0.0859     -0.2268      4.9416
         3        10.5733    -82.1852     80.7103      3.0328
         4        -0.1650      9.8952     -5.3394      1.4636
         5       -25.5282     21.5925     13.9689      3.3444
         6        -5.0736    -41.3603     -0.4649    -15.6329
         7        -4.0531     -4.7901      2.7258     -2.0391
         8        -2.3811     -1.8880      0.5416     -1.2425
         9         0.5310     -4.9027      1.1016     -1.0900
        10         3.9505     18.1766     -0.5787      7.1828
  1/2[<0|del|b>*<b|r|0> + (<0|r|b>*<b|del|0>)*] (Au)
       state          X           Y           Z        Dip. S.   Osc.(frdel)
         1        -0.5236     -0.0438     -0.0002      0.5676      0.3784
         2        -0.0002     -0.0000     -0.0001      0.0003      0.0002
         3        -0.0106     -0.5893     -0.0045      0.6044      0.4029
         4        -0.0000     -0.0008     -0.0058      0.0066      0.0044
         5        -0.1597     -0.1616     -0.0004      0.3217      0.2145
         6        -0.0001     -0.0018     -0.0001      0.0021      0.0014
         7        -0.0001     -0.0001     -0.0038      0.0040      0.0027
         8        -0.0002     -0.0001     -0.0017      0.0019      0.0013
         9        -0.0000     -0.0002     -0.0008      0.0010      0.0006
        10        -0.2140     -0.0430     -0.0000      0.2570      0.1714

 Excitation energies and oscillator strengths:
 
 Excited State   1:      Singlet-A      5.0347 eV  246.26 nm  f=0.3780  <S**2>=0.000
      53 -> 54         0.69708
 This state for optimization and/or second-order correction.
 Total Energy, E(TD-HF/TD-DFT) =  -759.705838881    
 Copying the excited state density for this state as the 1-particle RhoCI density.
 
 Excited State   2:      Singlet-A      5.5334 eV  224.06 nm  f=0.0001  <S**2>=0.000
      49 -> 54        -0.16849
      52 -> 54         0.63591
      52 -> 56         0.18810
 
 Excited State   3:      Singlet-A      6.2726 eV  197.66 nm  f=0.4069  <S**2>=0.000
      53 -> 56         0.69206
 
 Excited State   4:      Singlet-A      6.4811 eV  191.30 nm  f=0.0043  <S**2>=0.000
      53 -> 55         0.64782
      53 -> 57         0.10002
      53 -> 58        -0.12116
      53 -> 62        -0.19555
 
 Excited State   5:      Singlet-A      6.7639 eV  183.30 nm  f=0.2203  <S**2>=0.000
      50 -> 54         0.50670
      51 -> 54        -0.45107
 
 Excited State   6:      Singlet-A      6.7900 eV  182.60 nm  f=0.0013  <S**2>=0.000
      47 -> 56         0.14550
      49 -> 54        -0.20994
      49 -> 56         0.43850
      52 -> 54        -0.13914
      52 -> 56         0.40577
 
 Excited State   7:      Singlet-A      7.1339 eV  173.80 nm  f=0.0028  <S**2>=0.000
      53 -> 57         0.62464
      53 -> 58         0.14178
      53 -> 60        -0.20251
      53 -> 62         0.10852
 
 Excited State   8:      Singlet-A      7.2536 eV  170.93 nm  f=0.0014  <S**2>=0.000
      53 -> 55         0.10836
      53 -> 57        -0.10207
      53 -> 58         0.64097
      53 -> 60         0.14039
 
 Excited State   9:      Singlet-A      7.3988 eV  167.57 nm  f=0.0010  <S**2>=0.000
      47 -> 54         0.11378
      49 -> 54         0.61117
      49 -> 56         0.13383
      52 -> 54         0.12423
      52 -> 56         0.20383
 
 Excited State  10:      Singlet-A      7.5158 eV  164.96 nm  f=0.1760  <S**2>=0.000
      50 -> 56        -0.29460
      51 -> 56         0.26971
      53 -> 59         0.53685
 SavETr:  write IOETrn=   770 NScale= 10 NData=  16 NLR=1 NState=   10 LETran=     190.
 The selected state is a singlet.
 CISGrd: IGrad=3 NXY=2 DFT=T
 CISAX will form     1 AO SS matrices at one time.
 NMat=     1 NSing=     1 JSym2X= 0.
 GePol: Maximum number of non-zero 1st derivatives   =     266
 GePol: Maximum number of non-zero 2nd derivatives   =     266
 Leave Link  914 at Thu Jan  5 15:01:24 2023, MaxMem=  1342177280 cpu:            6654.3 elap:             133.4
 (Enter /shared/gaussian/g16.b01/AVX2/g16/l1002.exe)
 Minotr:  Closed shell wavefunction.
          Computing CIS/TDA/TD derivatives.
          Using Z-Vector for PSCF gradient.
          Skipping F1 and S1 gradient terms here.
          IDoAtm=111111111111111111111111111
 NEqPCM:  Using equilibrium solvation (IEInf=0, Eps=  78.3553, EpsInf=   1.7778)
          Frozen-core window.
          Direct CPHF calculation.
          Differentiating once with respect to electric field.
                with respect to dipole field.
          Differentiating once with respect to nuclear coordinates.
          Requested convergence is 1.0D-10 RMS, and 1.0D-09 maximum.
          NewPWx=F KeepS1=T KeepF1=T KeepIn=T MapXYZ=F SortEE=F KeepMc=T.
 Two-electron integral symmetry used by symmetrizing perturbed Fock matrices.
          MDV=    1342177280 using IRadAn=       5.
          Solving linear equations separately, MaxMat=     350.
          There are     1 degrees of freedom in the 1st order CPHF.  IDoFFX=0 NUNeed=     1.
 FoFJK:  IHMeth= 1 ICntrl=       0 DoSepK=T KAlg= 0 I1Cent=           0 FoldK=F
 IRaf=         1 NMat=       1 IRICut=       1 DoRegI=T DoRafI=F ISym2E=-1 IDoP0=0 IntGTp=1.
 FoFCou: FMM=F IPFlag=           0 FMFlag=      100000 FMFlg1=           0
         NFxFlg=           0 DoJE=T BraDBF=F KetDBF=F FulRan=T
         wScrn=  0.000000 ICntrl=       500 IOpCl=  0 I1Cent=           0 NGrid=           0
         NMat0=    1 NMatS0=      1 NMatT0=    0 NMatD0=    1 NMtDS0=    0 NMtDT0=    0
 Petite list used in FoFCou.
 LinEq1:  Iter=  0 NonCon=     1 RMS=3.92D-03 Max=1.41D-01 NDo=     1
 AX will form     1 AO Fock derivatives at one time.
 LinEq1:  Iter=  1 NonCon=     1 RMS=1.27D-03 Max=5.87D-02 NDo=     1
 LinEq1:  Iter=  2 NonCon=     1 RMS=8.28D-04 Max=2.90D-02 NDo=     1
 LinEq1:  Iter=  3 NonCon=     1 RMS=3.71D-04 Max=1.57D-02 NDo=     1
 LinEq1:  Iter=  4 NonCon=     1 RMS=2.47D-04 Max=1.77D-02 NDo=     1
 LinEq1:  Iter=  5 NonCon=     1 RMS=1.07D-04 Max=4.23D-03 NDo=     1
 LinEq1:  Iter=  6 NonCon=     1 RMS=5.61D-05 Max=2.92D-03 NDo=     1
 LinEq1:  Iter=  7 NonCon=     1 RMS=2.92D-05 Max=9.85D-04 NDo=     1
 LinEq1:  Iter=  8 NonCon=     1 RMS=1.33D-05 Max=3.96D-04 NDo=     1
 LinEq1:  Iter=  9 NonCon=     1 RMS=7.38D-06 Max=3.15D-04 NDo=     1
 LinEq1:  Iter= 10 NonCon=     1 RMS=3.16D-06 Max=1.37D-04 NDo=     1
 LinEq1:  Iter= 11 NonCon=     1 RMS=1.28D-06 Max=3.58D-05 NDo=     1
 LinEq1:  Iter= 12 NonCon=     1 RMS=5.83D-07 Max=2.52D-05 NDo=     1
 LinEq1:  Iter= 13 NonCon=     1 RMS=2.54D-07 Max=7.83D-06 NDo=     1
 LinEq1:  Iter= 14 NonCon=     1 RMS=8.57D-08 Max=1.83D-06 NDo=     1
 LinEq1:  Iter= 15 NonCon=     1 RMS=4.26D-08 Max=7.65D-07 NDo=     1
 LinEq1:  Iter= 16 NonCon=     1 RMS=1.53D-08 Max=3.38D-07 NDo=     1
 LinEq1:  Iter= 17 NonCon=     1 RMS=7.73D-09 Max=1.40D-07 NDo=     1
 LinEq1:  Iter= 18 NonCon=     1 RMS=2.00D-09 Max=3.86D-08 NDo=     1
 LinEq1:  Iter= 19 NonCon=     1 RMS=1.16D-09 Max=3.38D-08 NDo=     1
 LinEq1:  Iter= 20 NonCon=     1 RMS=4.42D-10 Max=1.48D-08 NDo=     1
 LinEq1:  Iter= 21 NonCon=     1 RMS=2.11D-10 Max=7.02D-09 NDo=     1
 LinEq1:  Iter= 22 NonCon=     1 RMS=8.99D-11 Max=4.09D-09 NDo=     1
 LinEq1:  Iter= 23 NonCon=     1 RMS=2.81D-11 Max=1.01D-09 NDo=     1
 LinEq1:  Iter= 24 NonCon=     0 RMS=1.83D-11 Max=6.17D-10 NDo=     1
 Linear equations converged to 1.000D-10 1.000D-09 after    24 iterations.
          There are     1 degrees of freedom in the 1st order CPHF.  IDoFFX=0 NUNeed=     1.
 End of Minotr F.D. properties file   721 does not exist.
 End of Minotr F.D. properties file   722 does not exist.
 End of Minotr F.D. properties file   788 does not exist.
 Leave Link 1002 at Thu Jan  5 15:02:17 2023, MaxMem=  1342177280 cpu:            2573.2 elap:              51.9
 (Enter /shared/gaussian/g16.b01/AVX2/g16/l1101.exe)
 Using compressed Sx but separate Hx and Fx, NAtomX=    27.
 Will process     28 centers per pass.
 Leave Link 1101 at Thu Jan  5 15:02:17 2023, MaxMem=  1342177280 cpu:              20.1 elap:               0.4
 (Enter /shared/gaussian/g16.b01/AVX2/g16/l1102.exe)
 Use density number 6.
 Symmetrizing basis deriv contribution to polar:
 IMax=3 JMax=2 DiffMx= 0.00D+00
 Leave Link 1102 at Thu Jan  5 15:02:17 2023, MaxMem=  1342177280 cpu:               2.0 elap:               0.1
 (Enter /shared/gaussian/g16.b01/AVX2/g16/l1110.exe)
 Forming Gx(P) for the SCF density, NAtomX=    27.
 Integral derivatives from FoFJK, PRISM(SPDF).
 Do as many integral derivatives as possible in FoFJK.
 G2DrvN: MDV=    1342174984.
 G2DrvN: will do    28 centers at a time, making    1 passes.
 Calling FoFCou, ICntrl=  3107 FMM=F I1Cent=   0 AccDes= 0.00D+00.
 FoFJK:  IHMeth= 1 ICntrl=    3107 DoSepK=T KAlg= 0 I1Cent=           0 FoldK=F
 IRaf=         1 NMat=       1 IRICut=       1 DoRegI=T DoRafI=F ISym2E= 0 IDoP0=0 IntGTp=1.
 FoFCou: FMM=F IPFlag=           0 FMFlag=      100000 FMFlg1=           0
         NFxFlg=           0 DoJE=F BraDBF=F KetDBF=F FulRan=T
         wScrn=  0.000000 ICntrl=      3507 IOpCl=  0 I1Cent=           0 NGrid=           0
         NMat0=    1 NMatS0=      1 NMatT0=    0 NMatD0=    1 NMtDS0=    0 NMtDT0=    0
 Symmetry not used in FoFCou.
 NEqPCM:  Using equilibrium solvation (IEInf=0, Eps=  78.3553, EpsInf=   1.7778)
 G2PCM: DoFxE=T DoFxN=T DoGrad=T DoDP/DQ/DG/TGxP=FFFF NFrqRd=   0 IEInf=0 SqF1=F DoCFld=F IF1Alg=4.
 Forming Gx(P) for generalized density number  6 NAtomX=    27.
 Integral derivatives from FoFJK, PRISM(SPDF).
 Do as many integral derivatives as possible in FoFJK.
 G2DrvN: MDV=    1342174984.
 G2DrvN: will do    28 centers at a time, making    1 passes.
 Calling FoFCou, ICntrl=  3107 FMM=F I1Cent=   0 AccDes= 0.00D+00.
 NEqPCM:  Using equilibrium solvation (IEInf=0, Eps=  78.3553, EpsInf=   1.7778)
 G2PCM: DoFxE=T DoFxN=F DoGrad=F DoDP/DQ/DG/TGxP=FFFF NFrqRd=   0 IEInf=0 SqF1=F DoCFld=F IF1Alg=4.
 Forming Gx(T) for CIS/TDA/TD state  1 NAtomX=    27.
 Integral derivatives from FoFJK, PRISM(SPDF).
 Do as many integral derivatives as possible in FoFJK.
 G2DrvN: MDV=    1342174984.
 G2DrvN: will do    28 centers at a time, making    1 passes.
 Calling FoFCou, ICntrl=  3107 FMM=F I1Cent=   0 AccDes= 0.00D+00.
 NEqPCM:  Using equilibrium solvation (IEInf=0, Eps=  78.3553, EpsInf=   1.7778)
 G2PCM: DoFxE=T DoFxN=F DoGrad=F DoDP/DQ/DG/TGxP=FFFF NFrqRd=   0 IEInf=0 SqF1=T DoCFld=F IF1Alg=4.
 End of G2Drv F.D. properties file   721 does not exist.
 End of G2Drv F.D. properties file   722 does not exist.
 End of G2Drv F.D. properties file   788 does not exist.
 Leave Link 1110 at Thu Jan  5 15:03:21 2023, MaxMem=  1342177280 cpu:            3170.1 elap:              63.5
 (Enter /shared/gaussian/g16.b01/AVX2/g16/l1002.exe)
 Minotr:  Closed shell wavefunction.
          IDoAtm=111111111111111111111111111
 NEqPCM:  Using equilibrium solvation (IEInf=0, Eps=  78.3553, EpsInf=   1.7778)
          Frozen-core window.
          Direct CPHF calculation.
          Differentiating once with respect to electric field.
                with respect to dipole field.
          Differentiating once with respect to nuclear coordinates.
          Requested convergence is 1.0D-08 RMS, and 1.0D-07 maximum.
          Secondary convergence is 1.0D-12 RMS, and 1.0D-12 maximum.
          NewPWx=T KeepS1=T KeepF1=T KeepIn=T MapXYZ=F SortEE=F KeepMc=T.
         8369 words used for storage of precomputed grid.
 Two-electron integrals replicated using symmetry.
          MDV=    1342177280 using IRadAn=       1.
          Solving linear equations simultaneously, MaxMat=     350.
 FoF2E skips out because all densities are zero.
 CalDSu exits because no D1Ps are significant.
 FoFJK:  IHMeth= 1 ICntrl=       0 DoSepK=T KAlg= 0 I1Cent=           0 FoldK=F
 IRaf=         1 NMat=      81 IRICut=       1 DoRegI=T DoRafI=F ISym2E= 2 IDoP0=3 IntGTp=3.
          There are    84 degrees of freedom in the 1st order CPHF.  IDoFFX=6 NUNeed=    84.
     81 vectors produced by pass  0 Test12= 2.00D-14 1.19D-09 XBig12= 7.41D+01 5.27D+00.
 AX will form    81 AO Fock derivatives at one time.
     81 vectors produced by pass  1 Test12= 2.00D-14 1.19D-09 XBig12= 9.97D+00 4.21D-01.
     81 vectors produced by pass  2 Test12= 2.00D-14 1.19D-09 XBig12= 2.17D-01 5.63D-02.
     81 vectors produced by pass  3 Test12= 2.00D-14 1.19D-09 XBig12= 1.60D-03 3.52D-03.
     81 vectors produced by pass  4 Test12= 2.00D-14 1.19D-09 XBig12= 8.11D-06 2.28D-04.
     81 vectors produced by pass  5 Test12= 2.00D-14 1.19D-09 XBig12= 3.72D-08 1.49D-05.
     63 vectors produced by pass  6 Test12= 2.00D-14 1.19D-09 XBig12= 1.66D-10 9.93D-07.
     13 vectors produced by pass  7 Test12= 2.00D-14 1.19D-09 XBig12= 6.30D-13 9.29D-08.
[...]
 -0.00005810,0.00021318,-0.00004896,-0.00003153,-0.00001371,-0.00011015
 ,0.00002479,-0.00101478,0.00081020,0.00019520,0.00163795,0.00231929,0.
 00120896,-0.00029451,-0.00032341,0.00007470,0.00003712,-0.00004350,0.0
 0002129,0.00001009,-0.00002037,0.00002914,0.00154786,0.00021257,-0.000
 42716,-0.00002236,-0.00003638,-0.00002389,-0.00000452,0.00000792,0.000
 00047,-0.00000687,0.00000294,0.00000021,0.00000406,-0.00001160,-0.0000
 0335,0.05636767,-0.05245553,-0.07636132,0.00062076,0.00016262,0.000004
 68,-0.00005362,0.00001095,-0.00000201,-0.00191710,-0.00225462,0.001627
 12,-0.08803954,0.06713220,0.09245801,-0.00108861,-0.00129508,0.0003538
 1,0.00048841,-0.00034112,-0.00002671,-0.00022617,0.00000444,-0.0000407
 0,-0.00000691,0.00001891,0.00002398,0.00009999,-0.00006634,0.00000701,
 -0.00044557,0.00026864,0.00003567,0.00123070,0.00149178,-0.00211415,-0
 .00013563,0.00014510,0.00006314,0.00002157,-0.00003342,-0.00002115,-0.
 00000221,-0.00000525,-0.00000150,0.00026649,-0.00001825,-0.00000965,-0
 .00001524,-0.00000853,-0.00001521,-0.00000017,-0.00000343,0.00000136,-
 0.00000098,-0.00000455,0.00000055,0.00000115,-0.00001296,-0.00000383,-
 0.05887094,-0.02520141,-0.11347188,0.00012650,-0.00008121,-0.00009681,
 -0.00003066,0.00000941,0.00000670,-0.00010896,-0.00028452,0.00004931,0
 .00944120,0.00956200,0.03420636,0.05117031,-0.00066006,-0.00043833,0.0
 0032920,-0.00011774,-0.00021136,0.00002139,0.00000430,0.00000399,0.000
 00202,0.00001693,0.00004178,0.00002284,-0.00002009,-0.00002065,0.00001
 082,-0.00004829,0.00000113,-0.00006470,0.00033965,-0.00029685,-0.00184
 112,0.00005226,0.00006940,-0.00000354,-0.00001346,-0.00000426,-0.00002
 633,-0.00000013,0.00000087,-0.00000390,0.00002838,0.00002161,0.0000770
 0,0.00000104,-0.00000387,-0.00000901,0.00000265,0.00000144,0.00000209,
 -0.00000242,-0.00000072,0.00000271,0.00000117,0.00000039,-0.00000144,-
 0.00809776,-0.06142171,-0.14257507,-0.00009194,0.00000873,-0.00000491,
 0.00001145,-0.00000263,0.00000293,-0.00004786,0.00011450,-0.00013568,-
 0.00719022,-0.00588093,-0.02036062,0.01462070,0.06766373,0.00141844,0.
 00123269,0.00015813,-0.00065551,0.00025850,-0.00002174,0.00029518,-0.0
 0000277,0.00001823,0.00007633,0.00001653,0.00001367,-0.00015749,0.0000
 2368,0.00003005,0.00023414,-0.00034136,-0.00005495,-0.00211016,-0.0019
 7143,-0.00016828,0.00020985,-0.00011115,-0.00002834,-0.00003984,0.0000
 4003,0.00000972,0.00000525,0.00000586,-0.00000362,-0.00005470,0.000229
 37,0.00001137,0.00000406,0.00000616,-0.00000669,0.00000472,0.00001104,
 0.00000275,0.00000097,0.00000590,0.00000260,0.00000190,0.00001642,0.00
 000134,-0.07378545,-0.16044548,-0.45488076,-0.00011632,-0.00002491,0.0
 0000652,0.00005000,-0.00001127,-0.00000325,0.00004273,-0.00025702,0.00
 002717,-0.00630371,-0.00272665,-0.01293281,0.08228381,0.16302453,0.468
 54749,0.00114762,-0.00064938,0.00014195,-0.00361447,0.00463201,0.00077
 522,-0.00050834,-0.00061491,-0.00032304,0.00104854,-0.00097481,-0.0000
 7582,-0.00144632,0.00033572,-0.00001323,-0.00042918,0.00090794,0.00003
 441,-0.00121276,-0.00148474,-0.00005227,0.00017384,-0.01008875,0.00245
 530,0.00028200,0.00006177,0.00006880,0.00004905,-0.00008957,-0.0000324
 8,0.00156205,-0.00014690,-0.00000080,0.00017015,-0.00011637,-0.0000009
 1,-0.00004074,0.00001943,-0.00002644,-0.00003696,0.00002426,0.00002828
 ,-0.00001121,-0.00000797,0.00000182,-0.00754923,0.00700560,-0.00421046
 ,-0.23802578,-0.22217042,0.09516007,-0.00035593,0.00001760,0.00002192,
 -0.00033982,-0.00048879,0.00005179,0.00175933,-0.00085899,-0.00280269,
 -0.00076186,0.00113063,0.00052896,0.61545009,0.00028896,-0.00163434,0.
 00051509,-0.00221290,0.00618134,0.00048849,-0.00108285,-0.00079046,-0.
 00045145,0.00099293,-0.00111684,-0.00002746,-0.00124773,0.00028456,-0.
 00009072,-0.00101026,0.00147639,0.00005032,-0.00011004,0.00123876,-0.0
 0055956,-0.00423929,-0.01072630,0.00345474,0.00039601,0.00000707,0.000
 06530,0.00004490,-0.00011185,-0.00003967,0.00174395,-0.00048515,-0.000
 00848,0.00016040,-0.00014909,0.00000283,-0.00004794,0.00001523,-0.0000
 2875,-0.00004401,0.00000904,0.00002959,-0.00001571,-0.00003700,-0.0000
 0376,0.00599764,-0.00161599,0.00257999,-0.17944608,-0.24371222,0.10953
 114,-0.00056626,0.00007633,0.00000545,-0.00034272,-0.00009637,0.000028
 20,-0.00056710,0.00061226,0.00168095,0.00088332,-0.00094493,0.00002210
 ,0.05803580,0.35528064,-0.00021170,0.00064117,0.00015882,0.00143160,-0
 .00187348,-0.00021050,0.00020616,0.00057974,-0.00012165,-0.00018593,0.
 00027636,0.00004633,0.00032402,-0.00007770,0.00005538,0.00029344,-0.00
 048972,-0.00007809,-0.00028420,-0.00067479,-0.00016505,0.00161374,0.00
 476458,0.00086552,-0.00013536,-0.00001626,-0.00001393,-0.00001737,0.00
 004669,0.00001554,-0.00044042,0.00019251,0.00002510,-0.00004945,0.0000
 4517,-0.00002556,0.00001347,0.00000087,0.00001088,0.00001317,-0.000000
 52,-0.00000720,0.00000479,0.00001386,0.00000063,-0.00585647,0.00420028
 ,0.00101084,0.07045113,0.10330299,-0.05728860,0.00022010,-0.00000408,0
 .00004249,0.00008530,-0.00007662,-0.00001648,0.00071787,-0.00033593,-0
 .00192563,0.00016655,-0.00005431,0.00048194,0.05069441,-0.18756416,0.1
 2492167,-0.00108206,-0.00019367,-0.00025673,0.00084650,-0.00215139,0.0
 0000489,0.00004150,0.00019920,0.00012002,-0.00033710,0.00026880,-0.000
 01050,0.00044565,-0.00012266,0.00002825,0.00022292,-0.00022728,-0.0000
 1421,0.00178169,0.00109191,0.00041777,0.00097814,0.00223246,-0.0004499
 8,-0.00007086,-0.00003634,-0.00001110,-0.00001732,0.00002467,-0.000002
 75,-0.00057443,-0.00009378,-0.00000589,-0.00006076,0.00004019,-0.00000
 150,0.00001306,-0.00000466,0.00000710,0.00001110,-0.00000492,-0.000007
 19,0.00000241,-0.00000091,-0.00000054,-0.00084393,-0.00303130,0.001177
 19,-0.03137147,0.01289417,-0.01182253,0.00012749,0.00000370,-0.0000053
 4,0.00014290,0.00043336,-0.00001584,-0.00291188,0.00158883,0.00253150,
 0.00061603,-0.00101756,-0.00132723,-0.36709948,0.12116312,-0.11826853,
 0.39831899,0.00072483,0.00088039,-0.00009478,-0.00162077,0.00008108,0.
 00020059,0.00039544,0.00000412,-0.00006312,0.00018907,-0.00005182,-0.0
 0001737,-0.00037407,0.00009739,0.00003991,0.00054958,-0.00042208,-0.00
 001865,-0.00107866,-0.00307529,0.00060192,0.00077702,-0.00125606,0.000
 48458,-0.00004654,0.00005648,0.00000876,0.00001102,0.00000350,0.000006
 97,-0.00002902,0.00022593,-0.00000706,0.00003965,0.00000713,-0.0000033
 0,-0.00000114,0.00000908,-0.00000274,0.00000244,0.00001369,0.00000384,
 0.00000112,0.00002584,0.00000340,-0.00120018,-0.00133973,-0.00026083,-
 0.03005965,0.01102434,-0.00942737,0.00008415,-0.00000898,0.00000247,-0
 .00002063,-0.00027569,0.00004612,0.00154798,-0.00184448,-0.00279734,-0
 .00153771,0.00190223,0.00020675,0.16444625,-0.10315428,0.07648432,-0.1
 3184215,0.09595310,-0.00055976,-0.00042553,-0.00022140,0.00069159,-0.0
 0045084,-0.00001198,-0.00014285,0.00003316,0.00009586,-0.00012532,0.00
 007698,-0.00002612,0.00020794,-0.00005661,0.00001737,-0.00013099,0.000
 10641,0.00001485,0.00095648,0.00154403,0.00038452,-0.00019990,0.000946
 04,-0.00041277,0.00000078,-0.00003060,-0.00000319,-0.00000832,0.000003
 70,-0.00000085,-0.00016219,-0.00013848,-0.00001609,-0.00002417,0.,0.00
 000080,0.00000162,-0.00000460,0.00000047,0.00000207,-0.00000571,-0.000
 00246,0.00000012,-0.00001036,-0.00000117,0.00306038,-0.00379351,-0.005
 64856,0.01254979,-0.00360529,0.00530620,-0.00000510,0.00000552,-0.0000
 0320,0.00005034,0.00030344,-0.00000584,-0.00161025,0.00069140,0.003500
 90,-0.00108839,0.00120226,-0.00182729,-0.14282816,0.07061145,-0.068041
 72,0.12844184,-0.06585306,0.06746414,0.00360060,-0.00557048,-0.0003379
 7,-0.00616856,0.01728771,0.00105501,-0.00337371,-0.00016562,0.00001760
 ,0.00199536,-0.00202439,-0.00005649,-0.00270906,0.00090929,-0.00007456
 ,-0.00135582,0.00327122,0.00021195,-0.00078555,-0.00053856,-0.00017948
 ,0.00781772,-0.01102723,-0.00051721,0.00388077,0.00081161,0.00013491,0
 .00009824,-0.00019229,-0.00003190,0.00341273,-0.00095989,-0.00000946,0
 .00045483,-0.00030560,0.00002218,-0.00010146,-0.00001032,-0.00006221,-
 0.00010569,-0.00000282,0.00005154,-0.00003379,-0.00007706,-0.00000545,
 0.00034883,0.00034747,0.00009142,-0.00065035,-0.00113941,0.00048806,-0
 .31099434,-0.19279929,-0.04171470,-0.00079626,-0.00049521,0.00011347,-
 0.00009305,-0.00005784,0.00004874,0.00002820,-0.00001294,-0.00005159,0
 .00047273,0.00064165,-0.00025251,-0.00014468,-0.00007014,-0.00001011,0
 .32611892,-0.00125537,-0.00061748,-0.00014811,0.00633039,0.00065377,0.
 00028671,-0.00033085,0.00095843,0.00027577,-0.00089045,-0.00078218,-0.
 00016271,0.00048460,0.00009790,0.00003419,0.00042579,-0.00001195,0.000
 00412,0.00007984,0.00017642,0.00002816,-0.00452760,-0.00549126,-0.0001
 0877,0.00146039,-0.00717325,-0.00108476,-0.00003250,0.00003014,0.00000
 744,-0.00006732,-0.00007762,-0.00000868,-0.00033393,0.00009029,-0.0000
 0270,0.00004302,0.00005739,0.00002103,0.00003966,0.00005891,-0.0000061
 1,0.00001752,0.00000833,0.00000105,-0.00007682,-0.00008247,-0.00001535
 ,-0.00011632,0.00026219,-0.00010603,-0.22306787,-0.17324704,-0.0586092
 0,0.00006326,0.00002866,-0.00001149,0.00002459,0.00000137,-0.00001295,
 -0.00000905,0.00000353,0.00001017,-0.00005287,-0.00020147,0.00008709,0
 .00003390,0.00002883,-0.00000975,0.20940023,0.17953681,0.00016130,-0.0
 0024448,0.00044216,-0.00004737,0.00048438,0.00053507,0.00018203,-0.000
 21879,-0.00041995,0.00015512,-0.00004333,0.00000710,-0.00010432,0.0000
 2675,-0.00004316,-0.00009335,0.00012750,0.00027082,-0.00002125,-0.0000
 3206,-0.00005796,-0.00020884,-0.00039207,-0.00424205,-0.00054841,0.000
 29086,0.00141118,0.00000294,0.00000022,-0.00000253,0.00014103,-0.00001
 948,-0.00008933,0.00002780,-0.00001428,0.00002549,-0.00002143,-0.00002
 099,-0.00001348,0.00001365,0.00001418,-0.00000480,-0.00000256,-0.00000
 547,0.00000945,0.00002421,0.00002252,-0.00000142,0.00012065,0.00002829
 ,0.00014261,-0.07684069,-0.07889347,-0.05031714,-0.00003640,-0.0000270
 6,0.00001725,-0.00000709,-0.00000351,0.00000506,-0.00000027,-0.0000016
 5,0.00000067,-0.00001686,0.00001167,-0.00006222,0.00000124,-0.00001260
 ,-0.00000659,0.04884392,0.05956724,0.04823224,0.00011198,0.00015232,0.
 00009872,-0.00011099,-0.00063846,-0.00004067,0.00076332,0.00022490,0.0
 0000071,-0.00005255,0.00009012,0.00003066,0.00001608,0.00000985,-0.000
 02101,-0.00002294,-0.00004870,0.00001499,0.00001356,-0.00002499,-0.000
 00863,-0.00137455,-0.00010938,-0.00060926,-0.00189454,0.00075080,0.000
 24705,-0.00000365,0.00000831,0.00001236,-0.00008097,0.00002723,0.00000
 318,0.00002963,-0.00000490,-0.00001334,-0.00000342,-0.00000439,0.00000
 176,-0.00000331,-0.00001000,-0.00000045,-0.00000106,-0.00000044,0.0000
 0005,0.00000399,0.00000339,-0.00000145,0.00000265,0.00003474,-0.000004
 61,-0.25426049,0.05100160,0.22082798,0.00000907,0.00000907,-0.00000163
 ,-0.00000287,0.00000162,0.00000085,-0.00000154,-0.00000070,0.00000030,
 -0.00000262,-0.00001708,0.00000200,0.00000275,0.00000065,0.00000046,-0
 .02133855,0.01240375,0.02825398,0.27820362,0.00016002,0.00039041,0.000
 03265,-0.00033208,-0.00155279,-0.00022070,0.00204480,-0.00136852,0.000
 56722,0.00038367,0.00038997,0.00002369,-0.00008336,-0.00012193,-0.0000
 1162,-0.00010004,-0.00008053,0.00000237,0.00002369,-0.00002982,-0.0000
 2863,-0.00142375,0.00092182,-0.00029690,-0.00154107,0.00215423,-0.0017
 2671,-0.00000612,-0.00000910,-0.00001340,-0.00004676,0.00004477,0.0000
 0451,0.00009818,-0.00001709,0.00002960,-0.00000765,-0.00002347,-0.0000
 0884,-0.00000801,-0.00001380,-0.00000090,-0.00000557,0.00000050,-0.000
 00216,0.00001155,0.00001085,0.00000413,0.00001624,0.00003620,0.0000230
 0,0.08216999,-0.05315944,-0.10868833,0.00000301,0.00000544,-0.00000100
 ,-0.00000381,0.00000140,0.00000144,0.00000093,0.00000138,-0.00000144,0
 .00000281,-0.00000780,-0.00001043,0.00000105,-0.00000229,-0.00000032,-
 0.01750568,0.00571071,0.01934210,-0.06385406,0.04672121,-0.00027957,0.
 00016512,-0.00000716,0.00062498,-0.00047340,-0.00000741,-0.00135287,0.
 00113770,0.00010908,-0.00032747,-0.00015158,-0.00009094,0.00016321,0.0
 0001824,0.00004713,0.00015138,-0.00011869,-0.00000318,0.00004568,0.000
 04831,0.00001334,-0.00167638,0.00002525,-0.00012969,0.00125368,-0.0015
 6416,-0.00010236,0.00000077,0.00001508,-0.00000443,-0.00018723,0.00002
 855,-0.00000665,-0.00008083,0.00002205,0.00000221,0.00000742,0.0000112
 9,0.00000454,0.00000842,0.00001453,-0.00000293,0.00000524,0.00000416,0
 .00000182,-0.00002449,-0.00002531,-0.00000842,0.00004311,0.00007198,-0
 .00002345,0.25812704,-0.09014240,-0.26787553,0.00004561,0.00002694,-0.
 00000497,0.00000590,0.00000320,-0.00000344,-0.00000368,-0.00000013,0.0
 0000509,-0.00003305,-0.00003952,0.00001292,0.00001105,0.00000548,0.000
 00182,-0.00770774,-0.00004653,0.00417202,-0.24879442,0.09098063,0.2638
 9764,-0.00087313,0.00114370,0.00043362,0.00079526,-0.00166138,-0.00006
 646,0.00046209,-0.00033167,0.00004872,-0.00288887,-0.00011606,-0.00009
 833,0.00123908,0.00076650,0.00010574,0.00786978,-0.00638689,-0.0000681
 8,0.00146913,0.00066421,-0.00013333,-0.00108314,0.00227637,0.00009416,
 0.00024913,-0.00011253,-0.00002191,-0.00020356,0.00013227,-0.00015500,
 -0.02122941,-0.00908100,0.00290728,0.00013433,0.00031444,0.00009474,0.
 00001696,-0.00016605,0.00002670,-0.00001614,-0.00017867,-0.00002956,-0
 .00008900,-0.00013754,-0.00000864,-0.00987842,0.01455745,0.00801053,0.
 00002062,-0.00030697,0.00009474,-0.00032912,0.00003352,0.00001034,-0.2
 0175103,-0.21716170,0.00348237,-0.00245642,-0.00957160,-0.00414774,-0.
 00181101,0.00102220,-0.00057051,-0.00067167,0.00061141,-0.00051120,0.0
 0095491,-0.00090611,0.00090312,0.00042971,-0.00004705,0.00001937,-0.00
 000235,0.00000239,-0.00002658,0.33508037,0.00068233,0.00200611,0.00041
 730,-0.00070055,-0.00115924,-0.00010015,0.00107506,-0.00032664,0.00009
 780,-0.00260648,-0.00000748,-0.00018349,0.00098195,0.00076452,0.000244
 04,0.00631853,-0.00693066,0.00041134,-0.00148172,-0.00190406,-0.000308
 60,-0.00050317,0.00197862,0.00004574,0.00012784,-0.00002062,-0.0000056
 6,-0.00017080,0.00013298,-0.00012602,-0.02087935,-0.00264763,0.0022009
 2,0.00015314,0.00031915,0.00006387,0.00003091,-0.00015200,0.00003891,-
 0.00001259,-0.00016823,-0.00002678,-0.00006651,-0.00009430,-0.00000538
 ,0.01523543,-0.01039859,-0.00960309,-0.00039028,-0.00033530,0.00007341
 ,-0.00018408,0.00000579,0.00000629,-0.19904094,-0.25523498,-0.02113318
 ,-0.00763588,0.00103606,0.00947728,0.00198927,-0.00070856,0.00063076,0
 .00096285,-0.00031980,0.00044016,-0.00106643,0.00093620,-0.00094563,0.
 00027477,-0.00001873,0.00001251,-0.00000493,-0.00000226,-0.00001629,0.
 22018625,0.30749403,0.00056811,-0.00012586,0.00024177,-0.00050216,0.00
 023782,0.00002774,-0.00000126,0.00018065,0.00007722,0.00035213,-0.0000
 0661,0.00012744,-0.00000772,-0.00019500,-0.00019825,-0.00128147,0.0013
 8962,0.00022624,-0.00073067,-0.00050188,-0.00023558,0.00030584,-0.0004
 0519,-0.00004257,-0.00004606,0.00003740,-0.00002410,0.00007165,-0.0000
 0143,-0.00013836,0.00538510,0.00268825,0.00251936,-0.00003677,-0.00001
 688,0.00011384,0.00001958,0.00000528,0.00000717,0.00001245,0.00003833,
 0.00000475,0.00001606,0.00002622,0.00001743,0.00976195,-0.00929442,0.0
 0025421,-0.00007727,0.00004361,-0.00003181,0.00008036,-0.00000731,0.00
 000582,0.03108929,0.01281951,-0.04417272,-0.00325887,0.00683145,-0.005
 58862,-0.00023053,0.00031620,0.00058526,0.00049176,-0.00030867,0.00034
 604,-0.00060837,0.00051766,-0.00060792,-0.00010656,0.00001336,-0.00001
 207,0.00000082,0.00000032,0.00000464,-0.22162540,0.03743087,0.48312429
 ,-0.00002512,0.00006942,-0.00006541,0.00004645,0.00004764,0.00000176,-
 0.00002697,-0.00002084,-0.00001190,0.00010946,-0.00000996,-0.00004080,
 -0.00019764,-0.00001467,0.00001547,0.00010204,-0.00018826,0.00005957,0
 .00001051,-0.00002540,0.00005141,0.00000572,-0.00004377,-0.00000204,-0
 .00000451,0.00000022,0.00000664,-0.00001024,-0.00000385,0.00003361,-0.
 00059259,-0.00084444,-0.00051406,-0.00001474,0.00000348,-0.00001751,0.
 00000324,0.00001473,-0.00000409,0.00000276,0.00000514,0.00000113,-0.00
 000059,0.00000126,-0.00000383,-0.00024962,0.00085245,-0.00013781,0.000
 00228,0.00000552,0.00000498,0.00000662,-0.00000017,-0.00000235,-0.0105
 8526,0.00538727,0.02771676,-0.00135327,-0.00037553,0.00165071,0.000015
 91,0.00008979,0.00001589,-0.00000901,-0.00001013,-0.00002460,0.0000079
 5,0.00001756,0.00002899,-0.00000777,0.00000106,0.00000158,-0.00000026,
 -0.00000037,0.00000083,-0.10543810,-0.01327463,0.18035803,0.11820277,0
 .00006035,0.00020259,0.00001572,-0.00004701,-0.00000139,-0.00000961,0.
 00007958,-0.00003939,0.00000996,-0.00008969,-0.00001139,0.00000139,-0.
 00004536,0.00007381,-0.00003364,0.00039161,-0.00053696,-0.00009558,-0.
 00025077,-0.00023171,-0.00004827,-0.00001340,0.00008833,-0.00000333,0.
 00000198,0.00000291,-0.00000239,-0.00001849,0.00000576,0.00001897,-0.0
 0180742,-0.00089365,-0.00023159,0.00000815,0.00001030,-0.00001107,-0.0
 0000442,-0.00000085,-0.00000048,-0.00000113,-0.00000617,-0.00000328,-0
 .00000254,-0.00000296,-0.00000259,0.00315931,-0.00285372,-0.00020833,-
 0.00004001,-0.00002872,0.00000479,-0.00000557,-0.00000179,0.00000021,-
 0.01166143,0.00403541,0.03107006,-0.00238304,0.00419841,-0.00226138,-0
 .00009169,0.00010007,0.00015298,0.00016179,-0.00007773,0.00010220,-0.0
 0018232,0.00018138,-0.00019410,0.00001083,-0.00000023,0.00000102,-0.00
 000029,-0.00000006,-0.00000049,0.00445449,-0.03424437,-0.05171330,0.00
 831647,0.03003211,-0.00009973,0.00010933,0.00003491,0.00009217,-0.0001
 2609,0.00001841,0.00005004,-0.00006286,0.00001765,-0.00024459,0.000030
 23,0.00005274,0.00021214,0.00008005,-0.00004628,0.00046662,-0.00021699
 ,-0.00008720,0.00015800,0.00001230,-0.00001093,-0.00009320,0.00019295,
 -0.00000126,0.00001550,-0.00000818,-0.00000710,-0.00001229,0.00000810,
 -0.00003489,-0.00145642,-0.00085810,0.00035979,0.00002370,-0.00000480,
 0.00002403,-0.00001113,-0.00002009,-0.00000317,-0.00000124,-0.00000666
 ,-0.00000128,-0.00000530,-0.00001038,0.00000313,-0.00138596,0.00129604
 ,0.00081584,-0.00000636,-0.00003294,0.00001267,-0.00002726,0.00000143,
 -0.00000089,-0.00129654,-0.00269062,-0.00331110,0.00151949,-0.00205319
 ,-0.00137033,-0.00007378,0.00006842,0.00002572,-0.00003849,0.00004488,
 -0.00003745,0.00006739,-0.00005454,0.00005024,0.00003916,-0.00000322,0
 .00000158,-0.00000039,-0.00000029,-0.00000169,0.21123141,-0.01913691,-
 0.43663119,-0.20912295,0.02344213,0.44012804\\-0.00458975,0.03794595,0
 .00335194,0.02198973,0.00863541,0.00175213,0.00367676,-0.01724263,-0.0
 0165022,-0.09999217,0.00276805,-0.00407257,0.09370922,0.00118508,0.004
 31026,-0.03849736,-0.03844338,-0.00495295,-0.00256258,-0.00207065,0.00
 034252,-0.00311068,-0.00683375,-0.00060966,-0.00494812,0.00105261,-0.0
 0024698,-0.00023940,0.00157329,0.00035711,0.04433193,-0.00082035,0.001
 24387,-0.01449153,0.00948439,0.00002535,0.00242323,0.00120358,0.000988
 01,0.00250501,0.00124551,-0.00054111,-0.00002510,-0.00026082,-0.000064
 12,0.00045676,0.00123328,0.00012172,0.00118267,0.00166436,-0.00051391,
 0.00222969,-0.00084201,-0.00013258,-0.00282412,-0.00200012,-0.00003265
 ,-0.00019689,-0.00036896,0.00001755,0.00006158,-0.00005940,-0.00012527
 ,-0.00089803,-0.00062368,0.00019098,0.00033126,-0.00031385,0.00017004,
 -0.00214334,0.00065494,-0.00013449,-0.00003373,-0.00013699,0.00021676,
 0.00173567,0.00136264,-0.00012703,-0.00008068,0.00000750,0.00011531\\\
 @


 IT WAS A GAME, A VERY INTERESTING GAME ONE COULD
 PLAY.  WHENEVER ONE SOLVED ONE OF THE LITTLE PROBLEMS,
 ONE COULD WRITE A PAPER ABOUT IT.  IT WAS VERY EASY IN
 THOSE DAYS FOR ANY SECOND-RATE PHYSICIST TO DO
 FIRST-RATE WORK.  THERE HAS NOT BEEN SUCH A GLORIOUS
 TIME SINCE.  IT IS VERY DIFFICULT NOW FOR A FIRST-RATE
 PHYSICIST TO DO SECOND-RATE WORK.
     P.A.M. DIRAC, ON THE EARLY DAYS OF QUANTUM MECHANICS
                   DIRECTIONS IN PHYSICS, 1978, P. 7
 Job cpu time:       0 days  8 hours 44 minutes 11.3 seconds.
 Elapsed time:       0 days  0 hours 10 minutes 31.6 seconds.
 File lengths (MBytes):  RWF=   1822 Int=      0 D2E=      0 Chk=     62 Scr=      1
 Normal termination of Gaussian 16 at Thu Jan  5 15:09:21 2023.
