Adenine TDDFT second excited state                                      
Freq      RCAM-B3LYP TD-FC                                            6-311+G(d,p)        
Number of atoms                            I               15
Info1-9                                    I   N=           9
          24          24           0           0           0         100
           6         218        4001
Full Title                                 C   N=           3
Adenine TDDFT second excited state  
Route                                      C   N=           6
#p freq td=(nstates=10,root=2) cam-b3lyp/6-311+G(d,p) symm=l
oose        
Charge                                     I                0
Multiplicity                               I                1
Number of electrons                        I               70
Number of alpha electrons                  I               35
Number of beta electrons                   I               35
Number of basis functions                  I              250
Number of independent functions            I              250
Number of point charges in /Mol/           I                0
Number of translation vectors              I                0
Atomic numbers                             I   N=          15
           6           7           6           6           6           7
           1           7           1           1           7           7
           6           1           1
Nuclear charges                            R   N=          15
  6.00000000E+00  7.00000000E+00  6.00000000E+00  6.00000000E+00  6.00000000E+00
  7.00000000E+00  1.00000000E+00  7.00000000E+00  1.00000000E+00  1.00000000E+00
  7.00000000E+00  7.00000000E+00  6.00000000E+00  1.00000000E+00  1.00000000E+00
Current cartesian coordinates              R   N=          45
  1.25582694E+00 -3.82068796E+00  0.00000000E+00  3.13507076E+00 -2.13121801E+00
  0.00000000E+00  2.55847374E+00  3.23691188E-01  0.00000000E+00  1.79115202E-16
  1.02665419E+00  0.00000000E+00 -1.73613107E+00 -9.36347956E-01  0.00000000E+00
 -1.21242560E+00 -3.39935841E+00  0.00000000E+00  1.83972397E+00 -5.78633194E+00
  0.00000000E+00  4.43760984E+00  2.04247647E+00  0.00000000E+00  6.23922938E+00
  1.43876566E+00  0.00000000E+00  4.03913274E+00  3.89979379E+00  0.00000000E+00
 -1.19658025E+00  3.34561648E+00  0.00000000E+00 -4.04905948E+00  2.33356610E-01
  0.00000000E+00 -3.58921919E+00  2.79034692E+00  0.00000000E+00 -5.74165126E+00
 -6.38341926E-01  0.00000000E+00 -5.11245183E+00  4.14805089E+00  0.00000000E+00
Number of symbols in /Mol/                 I                0
Force Field                                I                0
Atom Types                                 C   N=          15
                                                            
                                                            
                                                            
Int Atom Types                             I   N=          15
           0           0           0           0           0           0
           0           0           0           0           0           0
           0           0           0
MM charges                                 R   N=          15
  0.00000000E+00  0.00000000E+00  0.00000000E+00  0.00000000E+00  0.00000000E+00
  0.00000000E+00  0.00000000E+00  0.00000000E+00  0.00000000E+00  0.00000000E+00
  0.00000000E+00  0.00000000E+00  0.00000000E+00  0.00000000E+00  0.00000000E+00
Integer atomic weights                     I   N=          15
          12          14          12          12          12          14
           1          14           1           1          14          14
          12           1           1
Real atomic weights                        R   N=          15
  1.20000000E+01  1.40030740E+01  1.20000000E+01  1.20000000E+01  1.20000000E+01
  1.40030740E+01  1.00782504E+00  1.40030740E+01  1.00782504E+00  1.00782504E+00
  1.40030740E+01  1.40030740E+01  1.20000000E+01  1.00782504E+00  1.00782504E+00
Atom fragment info                         I   N=          15
           0           0           0           0           0           0
           0           0           0           0           0           0
           0           0           0
Atom residue num                           I   N=          15
           0           0           0           0           0           0
           0           0           0           0           0           0
           0           0           0
Nuclear spins                              I   N=          15
           0           2           0           0           0           2
           1           2           1           1           2           2
           0           1           1
Nuclear ZEff                               R   N=          15
 -3.60000000E+00 -4.55000000E+00 -3.60000000E+00 -3.60000000E+00 -3.60000000E+00
 -4.55000000E+00 -1.00000000E+00 -4.55000000E+00 -1.00000000E+00 -1.00000000E+00
 -4.55000000E+00 -4.55000000E+00 -3.60000000E+00 -1.00000000E+00 -1.00000000E+00
Nuclear ZNuc                               R   N=          15
  6.00000000E+00  7.00000000E+00  6.00000000E+00  6.00000000E+00  6.00000000E+00
  7.00000000E+00  1.00000000E+00  7.00000000E+00  1.00000000E+00  1.00000000E+00
  7.00000000E+00  7.00000000E+00  6.00000000E+00  1.00000000E+00  1.00000000E+00
Nuclear QMom                               R   N=          15
  0.00000000E+00  2.04400000E+00  0.00000000E+00  0.00000000E+00  0.00000000E+00
  2.04400000E+00  0.00000000E+00  2.04400000E+00  0.00000000E+00  0.00000000E+00
  2.04400000E+00  2.04400000E+00  0.00000000E+00  0.00000000E+00  0.00000000E+00
Nuclear GFac                               R   N=          15
  0.00000000E+00  4.03761000E-01  0.00000000E+00  0.00000000E+00  0.00000000E+00
  4.03761000E-01  2.79284600E+00  4.03761000E-01  2.79284600E+00  2.79284600E+00
  4.03761000E-01  4.03761000E-01  0.00000000E+00  2.79284600E+00  2.79284600E+00
MicOpt                                     I   N=          15
          -1          -1          -1          -1          -1          -1
          -1          -1          -1          -1          -1          -1
          -1          -1          -1
Number of residues                         I                0
Number of secondary structures             I                0
SymInf integers                            I   N=          26
           1           2           1           1           1           1
           1          -1           0           0           0           0
           0           0           0           0           0           0
           0           0           0           0           0           0
           0           0
RotTr to input orientation                 R   N=          12
  1.00000000E+00 -1.05180821E-07  0.00000000E+00  1.05180821E-07  1.00000000E+00
  0.00000000E+00  0.00000000E+00  0.00000000E+00  1.00000000E+00 -1.07984350E-07
 -1.88972612E-07  0.00000000E+00
Number of contracted shells                I               80
Number of primitive shells                 I              160
Pure/Cartesian d shells                    I                0
Pure/Cartesian f shells                    I                0
Highest angular momentum                   I                2
Largest degree of contraction              I                6
Shell types                                I   N=          80
           0          -1          -1          -1          -1          -2
           0          -1          -1          -1          -1          -2
           0          -1          -1          -1          -1          -2
           0          -1          -1          -1          -1          -2
           0          -1          -1          -1          -1          -2
           0          -1          -1          -1          -1          -2
           0           0           0           1           0          -1
          -1          -1          -1          -2           0           0
           0           1           0           0           0           1
           0          -1          -1          -1          -1          -2
           0          -1          -1          -1          -1          -2
           0          -1          -1          -1          -1          -2
           0           0           0           1           0           0
           0           1
Number of primitives per shell             I   N=          80
           6           3           1           1           1           1
           6           3           1           1           1           1
           6           3           1           1           1           1
           6           3           1           1           1           1
           6           3           1           1           1           1
           6           3           1           1           1           1
           3           1           1           1           6           3
           1           1           1           1           3           1
           1           1           3           1           1           1
           6           3           1           1           1           1
           6           3           1           1           1           1
           6           3           1           1           1           1
           3           1           1           1           3           1
           1           1
Shell to atom map                          I   N=          80
           1           1           1           1           1           1
           2           2           2           2           2           2
           3           3           3           3           3           3
           4           4           4           4           4           4
           5           5           5           5           5           5
           6           6           6           6           6           6
           7           7           7           7           8           8
           8           8           8           8           9           9
           9           9          10          10          10          10
          11          11          11          11          11          11
          12          12          12          12          12          12
          13          13          13          13          13          13
          14          14          14          14          15          15
          15          15
Primitive exponents                        R   N=         160
  4.56324000E+03  6.82024000E+02  1.54973000E+02  4.44553000E+01  1.30290000E+01
  1.82773000E+00  2.09642000E+01  4.80331000E+00  1.45933000E+00  4.83456000E-01
  1.45585000E-01  4.38000000E-02  6.26000000E-01  6.29348000E+03  9.49044000E+02
  2.18776000E+02  6.36916000E+01  1.88282000E+01  2.72023000E+00  3.06331000E+01
  7.02614000E+00  2.11205000E+00  6.84009000E-01  2.00878000E-01  6.39000000E-02
  9.13000000E-01  4.56324000E+03  6.82024000E+02  1.54973000E+02  4.44553000E+01
  1.30290000E+01  1.82773000E+00  2.09642000E+01  4.80331000E+00  1.45933000E+00
  4.83456000E-01  1.45585000E-01  4.38000000E-02  6.26000000E-01  4.56324000E+03
  6.82024000E+02  1.54973000E+02  4.44553000E+01  1.30290000E+01  1.82773000E+00
  2.09642000E+01  4.80331000E+00  1.45933000E+00  4.83456000E-01  1.45585000E-01
  4.38000000E-02  6.26000000E-01  4.56324000E+03  6.82024000E+02  1.54973000E+02
  4.44553000E+01  1.30290000E+01  1.82773000E+00  2.09642000E+01  4.80331000E+00
  1.45933000E+00  4.83456000E-01  1.45585000E-01  4.38000000E-02  6.26000000E-01
  6.29348000E+03  9.49044000E+02  2.18776000E+02  6.36916000E+01  1.88282000E+01
  2.72023000E+00  3.06331000E+01  7.02614000E+00  2.11205000E+00  6.84009000E-01
  2.00878000E-01  6.39000000E-02  9.13000000E-01  3.38650000E+01  5.09479000E+00
  1.15879000E+00  3.25840000E-01  1.02741000E-01  7.50000000E-01  6.29348000E+03
  9.49044000E+02  2.18776000E+02  6.36916000E+01  1.88282000E+01  2.72023000E+00
  3.06331000E+01  7.02614000E+00  2.11205000E+00  6.84009000E-01  2.00878000E-01
  6.39000000E-02  9.13000000E-01  3.38650000E+01  5.09479000E+00  1.15879000E+00
  3.25840000E-01  1.02741000E-01  7.50000000E-01  3.38650000E+01  5.09479000E+00
  1.15879000E+00  3.25840000E-01  1.02741000E-01  7.50000000E-01  6.29348000E+03
  9.49044000E+02  2.18776000E+02  6.36916000E+01  1.88282000E+01  2.72023000E+00
  3.06331000E+01  7.02614000E+00  2.11205000E+00  6.84009000E-01  2.00878000E-01
  6.39000000E-02  9.13000000E-01  6.29348000E+03  9.49044000E+02  2.18776000E+02
  6.36916000E+01  1.88282000E+01  2.72023000E+00  3.06331000E+01  7.02614000E+00
  2.11205000E+00  6.84009000E-01  2.00878000E-01  6.39000000E-02  9.13000000E-01
  4.56324000E+03  6.82024000E+02  1.54973000E+02  4.44553000E+01  1.30290000E+01
  1.82773000E+00  2.09642000E+01  4.80331000E+00  1.45933000E+00  4.83456000E-01
  1.45585000E-01  4.38000000E-02  6.26000000E-01  3.38650000E+01  5.09479000E+00
  1.15879000E+00  3.25840000E-01  1.02741000E-01  7.50000000E-01  3.38650000E+01
  5.09479000E+00  1.15879000E+00  3.25840000E-01  1.02741000E-01  7.50000000E-01
Contraction coefficients                   R   N=         160
  1.96665025E-03  1.52306019E-02  7.61269097E-02  2.60801033E-01  6.16462078E-01
  2.21006028E-01  1.14660081E-01  9.19999648E-01 -3.03068213E-03  1.00000000E+00
  1.00000000E+00  1.00000000E+00  1.00000000E+00  1.96978815E-03  1.49612859E-02
  7.35005308E-02  2.48936766E-01  6.02459433E-01  2.56201759E-01  1.11906080E-01
  9.21666655E-01 -2.56919183E-03  1.00000000E+00  1.00000000E+00  1.00000000E+00
  1.00000000E+00  1.96665025E-03  1.52306019E-02  7.61269097E-02  2.60801033E-01
  6.16462078E-01  2.21006028E-01  1.14660081E-01  9.19999648E-01 -3.03068213E-03
  1.00000000E+00  1.00000000E+00  1.00000000E+00  1.00000000E+00  1.96665025E-03
  1.52306019E-02  7.61269097E-02  2.60801033E-01  6.16462078E-01  2.21006028E-01
  1.14660081E-01  9.19999648E-01 -3.03068213E-03  1.00000000E+00  1.00000000E+00
  1.00000000E+00  1.00000000E+00  1.96665025E-03  1.52306019E-02  7.61269097E-02
  2.60801033E-01  6.16462078E-01  2.21006028E-01  1.14660081E-01  9.19999648E-01
 -3.03068213E-03  1.00000000E+00  1.00000000E+00  1.00000000E+00  1.00000000E+00
  1.96978815E-03  1.49612859E-02  7.35005308E-02  2.48936766E-01  6.02459433E-01
  2.56201759E-01  1.11906080E-01  9.21666655E-01 -2.56919183E-03  1.00000000E+00
  1.00000000E+00  1.00000000E+00  1.00000000E+00  2.54938145E-02  1.90373109E-01
  8.52161486E-01  1.00000000E+00  1.00000000E+00  1.00000000E+00  1.96978815E-03
  1.49612859E-02  7.35005308E-02  2.48936766E-01  6.02459433E-01  2.56201759E-01
  1.11906080E-01  9.21666655E-01 -2.56919183E-03  1.00000000E+00  1.00000000E+00
  1.00000000E+00  1.00000000E+00  2.54938145E-02  1.90373109E-01  8.52161486E-01
  1.00000000E+00  1.00000000E+00  1.00000000E+00  2.54938145E-02  1.90373109E-01
  8.52161486E-01  1.00000000E+00  1.00000000E+00  1.00000000E+00  1.96978815E-03
  1.49612859E-02  7.35005308E-02  2.48936766E-01  6.02459433E-01  2.56201759E-01
  1.11906080E-01  9.21666655E-01 -2.56919183E-03  1.00000000E+00  1.00000000E+00
  1.00000000E+00  1.00000000E+00  1.96978815E-03  1.49612859E-02  7.35005308E-02
  2.48936766E-01  6.02459433E-01  2.56201759E-01  1.11906080E-01  9.21666655E-01
 -2.56919183E-03  1.00000000E+00  1.00000000E+00  1.00000000E+00  1.00000000E+00
  1.96665025E-03  1.52306019E-02  7.61269097E-02  2.60801033E-01  6.16462078E-01
  2.21006028E-01  1.14660081E-01  9.19999648E-01 -3.03068213E-03  1.00000000E+00
  1.00000000E+00  1.00000000E+00  1.00000000E+00  2.54938145E-02  1.90373109E-01
  8.52161486E-01  1.00000000E+00  1.00000000E+00  1.00000000E+00  2.54938145E-02
  1.90373109E-01  8.52161486E-01  1.00000000E+00  1.00000000E+00  1.00000000E+00
P(S=P) Contraction coefficients            R   N=         160
  0.00000000E+00  0.00000000E+00  0.00000000E+00  0.00000000E+00  0.00000000E+00
  0.00000000E+00  4.02486927E-02  2.37593957E-01  8.15853851E-01  1.00000000E+00
  1.00000000E+00  1.00000000E+00  0.00000000E+00  0.00000000E+00  0.00000000E+00
  0.00000000E+00  0.00000000E+00  0.00000000E+00  0.00000000E+00  3.83119186E-02
  2.37403116E-01  8.17592398E-01  1.00000000E+00  1.00000000E+00  1.00000000E+00
  0.00000000E+00  0.00000000E+00  0.00000000E+00  0.00000000E+00  0.00000000E+00
  0.00000000E+00  0.00000000E+00  4.02486927E-02  2.37593957E-01  8.15853851E-01
  1.00000000E+00  1.00000000E+00  1.00000000E+00  0.00000000E+00  0.00000000E+00
  0.00000000E+00  0.00000000E+00  0.00000000E+00  0.00000000E+00  0.00000000E+00
  4.02486927E-02  2.37593957E-01  8.15853851E-01  1.00000000E+00  1.00000000E+00
  1.00000000E+00  0.00000000E+00  0.00000000E+00  0.00000000E+00  0.00000000E+00
  0.00000000E+00  0.00000000E+00  0.00000000E+00  4.02486927E-02  2.37593957E-01
  8.15853851E-01  1.00000000E+00  1.00000000E+00  1.00000000E+00  0.00000000E+00
  0.00000000E+00  0.00000000E+00  0.00000000E+00  0.00000000E+00  0.00000000E+00
  0.00000000E+00  3.83119186E-02  2.37403116E-01  8.17592398E-01  1.00000000E+00
  1.00000000E+00  1.00000000E+00  0.00000000E+00  0.00000000E+00  0.00000000E+00
  0.00000000E+00  0.00000000E+00  0.00000000E+00  0.00000000E+00  0.00000000E+00
  0.00000000E+00  0.00000000E+00  0.00000000E+00  0.00000000E+00  0.00000000E+00
  3.83119186E-02  2.37403116E-01  8.17592398E-01  1.00000000E+00  1.00000000E+00
  1.00000000E+00  0.00000000E+00  0.00000000E+00  0.00000000E+00  0.00000000E+00
  0.00000000E+00  0.00000000E+00  0.00000000E+00  0.00000000E+00  0.00000000E+00
  0.00000000E+00  0.00000000E+00  0.00000000E+00  0.00000000E+00  0.00000000E+00
  0.00000000E+00  0.00000000E+00  0.00000000E+00  0.00000000E+00  0.00000000E+00
  3.83119186E-02  2.37403116E-01  8.17592398E-01  1.00000000E+00  1.00000000E+00
  1.00000000E+00  0.00000000E+00  0.00000000E+00  0.00000000E+00  0.00000000E+00
  0.00000000E+00  0.00000000E+00  0.00000000E+00  3.83119186E-02  2.37403116E-01
  8.17592398E-01  1.00000000E+00  1.00000000E+00  1.00000000E+00  0.00000000E+00
  0.00000000E+00  0.00000000E+00  0.00000000E+00  0.00000000E+00  0.00000000E+00
  0.00000000E+00  4.02486927E-02  2.37593957E-01  8.15853851E-01  1.00000000E+00
  1.00000000E+00  1.00000000E+00  0.00000000E+00  0.00000000E+00  0.00000000E+00
  0.00000000E+00  0.00000000E+00  0.00000000E+00  0.00000000E+00  0.00000000E+00
  0.00000000E+00  0.00000000E+00  0.00000000E+00  0.00000000E+00  0.00000000E+00
Coordinates of each shell                  R   N=         240
  1.25582745E+00 -3.82068764E+00  0.00000000E+00  1.25582745E+00 -3.82068764E+00
  0.00000000E+00  1.25582745E+00 -3.82068764E+00  0.00000000E+00  1.25582745E+00
 -3.82068764E+00  0.00000000E+00  1.25582745E+00 -3.82068764E+00  0.00000000E+00
  1.25582745E+00 -3.82068764E+00  0.00000000E+00  3.13507109E+00 -2.13121749E+00
  0.00000000E+00  3.13507109E+00 -2.13121749E+00  0.00000000E+00  3.13507109E+00
 -2.13121749E+00  0.00000000E+00  3.13507109E+00 -2.13121749E+00  0.00000000E+00
  3.13507109E+00 -2.13121749E+00  0.00000000E+00  3.13507109E+00 -2.13121749E+00
  0.00000000E+00  2.55847382E+00  3.23691646E-01  0.00000000E+00  2.55847382E+00
  3.23691646E-01  0.00000000E+00  2.55847382E+00  3.23691646E-01  0.00000000E+00
  2.55847382E+00  3.23691646E-01  0.00000000E+00  2.55847382E+00  3.23691646E-01
  0.00000000E+00  2.55847382E+00  3.23691646E-01  0.00000000E+00  3.62466814E-17
  1.02665438E+00  0.00000000E+00  3.62466814E-17  1.02665438E+00  0.00000000E+00
  3.62466814E-17  1.02665438E+00  0.00000000E+00  3.62466814E-17  1.02665438E+00
  0.00000000E+00  3.62466814E-17  1.02665438E+00  0.00000000E+00  3.62466814E-17
  1.02665438E+00  0.00000000E+00 -1.73613087E+00 -9.36347950E-01  0.00000000E+00
 -1.73613087E+00 -9.36347950E-01  0.00000000E+00 -1.73613087E+00 -9.36347950E-01
  0.00000000E+00 -1.73613087E+00 -9.36347950E-01  0.00000000E+00 -1.73613087E+00
 -9.36347950E-01  0.00000000E+00 -1.73613087E+00 -9.36347950E-01  0.00000000E+00
 -1.21242514E+00 -3.39935834E+00  0.00000000E+00 -1.21242514E+00 -3.39935834E+00
  0.00000000E+00 -1.21242514E+00 -3.39935834E+00  0.00000000E+00 -1.21242514E+00
 -3.39935834E+00  0.00000000E+00 -1.21242514E+00 -3.39935834E+00  0.00000000E+00
 -1.21242514E+00 -3.39935834E+00  0.00000000E+00  1.83972469E+00 -5.78633156E+00
  0.00000000E+00  1.83972469E+00 -5.78633156E+00  0.00000000E+00  1.83972469E+00
 -5.78633156E+00  0.00000000E+00  1.83972469E+00 -5.78633156E+00  0.00000000E+00
  4.43760974E+00  2.04247712E+00  0.00000000E+00  4.43760974E+00  2.04247712E+00
  0.00000000E+00  4.43760974E+00  2.04247712E+00  0.00000000E+00  4.43760974E+00
  2.04247712E+00  0.00000000E+00  4.43760974E+00  2.04247712E+00  0.00000000E+00
  4.43760974E+00  2.04247712E+00  0.00000000E+00  6.23922933E+00  1.43876651E+00
  0.00000000E+00  6.23922933E+00  1.43876651E+00  0.00000000E+00  6.23922933E+00
  1.43876651E+00  0.00000000E+00  6.23922933E+00  1.43876651E+00  0.00000000E+00
  4.03913244E+00  3.89979440E+00  0.00000000E+00  4.03913244E+00  3.89979440E+00
  0.00000000E+00  4.03913244E+00  3.89979440E+00  0.00000000E+00  4.03913244E+00
  3.89979440E+00  0.00000000E+00 -1.19658050E+00  3.34561655E+00  0.00000000E+00
 -1.19658050E+00  3.34561655E+00  0.00000000E+00 -1.19658050E+00  3.34561655E+00
  0.00000000E+00 -1.19658050E+00  3.34561655E+00  0.00000000E+00 -1.19658050E+00
  3.34561655E+00  0.00000000E+00 -1.19658050E+00  3.34561655E+00  0.00000000E+00
 -4.04905939E+00  2.33356373E-01  0.00000000E+00 -4.04905939E+00  2.33356373E-01
  0.00000000E+00 -4.04905939E+00  2.33356373E-01  0.00000000E+00 -4.04905939E+00
  2.33356373E-01  0.00000000E+00 -4.04905939E+00  2.33356373E-01  0.00000000E+00
 -4.04905939E+00  2.33356373E-01  0.00000000E+00 -3.58921937E+00  2.79034673E+00
  0.00000000E+00 -3.58921937E+00  2.79034673E+00  0.00000000E+00 -3.58921937E+00
  2.79034673E+00  0.00000000E+00 -3.58921937E+00  2.79034673E+00  0.00000000E+00
 -3.58921937E+00  2.79034673E+00  0.00000000E+00 -3.58921937E+00  2.79034673E+00
  0.00000000E+00 -5.74165109E+00 -6.38342341E-01  0.00000000E+00 -5.74165109E+00
 -6.38342341E-01  0.00000000E+00 -5.74165109E+00 -6.38342341E-01  0.00000000E+00
 -5.74165109E+00 -6.38342341E-01  0.00000000E+00 -5.11245216E+00  4.14805054E+00
  0.00000000E+00 -5.11245216E+00  4.14805054E+00  0.00000000E+00 -5.11245216E+00
  4.14805054E+00  0.00000000E+00 -5.11245216E+00  4.14805054E+00  0.00000000E+00
Num ILSW                                   I              100
ILSW                                       I   N=         100
           0           0           0           0           2           0
           0           0           0           0       20419          -1
           5           0           0           0           2           0
           0           0           0           0           1           0
           1           0           0           0           0           0
           0           0      100000           0          -1           0
           0           0           0           0           0           0
           0           0           0           1           0           0
           0 -2000000000           1           0           0           0
           0           0           4          52           0           0
           0           0          40           0           0           0
           0           0           0          15           0           1
           0           0           0           0           0           0
           0           0           0           0           0           0
           0           0           0           0           0           0
           0           0           0           0           0           0
           0           0           0           0
Num RLSW                                   I               52
RLSW                                       R   N=          52
  1.00000000E+00  1.00000000E+00  1.00000000E+00  8.10000000E-01  1.00000000E+00
  0.00000000E+00  3.30000000E-01  1.90000000E-01  0.00000000E+00  4.60000000E-01
  0.00000000E+00  3.30000000E-01  1.90000000E-01  0.00000000E+00  4.60000000E-01
  0.00000000E+00  0.00000000E+00  1.00000000E+00  0.00000000E+00  0.00000000E+00
  0.00000000E+00  0.00000000E+00  1.00000000E+00  0.00000000E+00  0.00000000E+00
  0.00000000E+00  0.00000000E+00  1.00000000E+00  0.00000000E+00  0.00000000E+00
  0.00000000E+00  0.00000000E+00  1.00000000E+00  0.00000000E+00  0.00000000E+00
  0.00000000E+00  0.00000000E+00  0.00000000E+00  1.00000000E+00  1.00000000E+00
  0.00000000E+00  1.00000000E+00  0.00000000E+00  0.00000000E+00  0.00000000E+00
  0.00000000E+00  0.00000000E+00  0.00000000E+00  0.00000000E+00  0.00000000E+00
  0.00000000E+00  0.00000000E+00
MxBond                                     I                3
NBond                                      I   N=          15
           3           2           3           3           3           2
           1           3           1           1           2           3
           3           1           1
IBond                                      I   N=          45
           2           6           7           1           3           0
           2           4           8           3           5          11
           4           6          12           1           5           0
           1           0           0           3           9          10
           8           0           0           8           0           0
           4          13           0           5          13          14
          11          12          15          12           0           0
          13           0           0
RBond                                      R   N=          45
  1.50000000E+00  1.50000000E+00  1.00000000E+00  1.50000000E+00  1.50000000E+00
  0.00000000E+00  1.50000000E+00  1.50000000E+00  1.50000000E+00  1.50000000E+00
  1.50000000E+00  1.00000000E+00  1.50000000E+00  1.50000000E+00  1.00000000E+00
  1.50000000E+00  1.50000000E+00  0.00000000E+00  1.00000000E+00  0.00000000E+00
  0.00000000E+00  1.50000000E+00  1.00000000E+00  1.00000000E+00  1.00000000E+00
  0.00000000E+00  0.00000000E+00  1.00000000E+00  0.00000000E+00  0.00000000E+00
  1.00000000E+00  2.00000000E+00  0.00000000E+00  1.00000000E+00  1.00000000E+00
  1.00000000E+00  2.00000000E+00  1.00000000E+00  1.00000000E+00  1.00000000E+00
  0.00000000E+00  0.00000000E+00  1.00000000E+00  0.00000000E+00  0.00000000E+00
Virial Ratio                               R      2.003067113212060E+00
SCF Energy                                 R     -4.672325225795004E+02
CIS Energy                                 R     -4.670345488768344E+02
Total Energy                               R     -4.670345488768344E+02
Post-SCF wavefunction norm                 R      1.000000000000000E+00
RMS Force                                  R      2.324411050095596E-02
RMS Density                                R      9.613793814644908E-09
NImag                                      I                3
Job Status                                 I                1
Nuclear derivative order                   I                2
External E-field                           R   N=          35
  0.00000000E+00  0.00000000E+00  0.00000000E+00  0.00000000E+00  0.00000000E+00
  0.00000000E+00  0.00000000E+00  0.00000000E+00  0.00000000E+00  0.00000000E+00
  0.00000000E+00  0.00000000E+00  0.00000000E+00  0.00000000E+00  0.00000000E+00
  0.00000000E+00  0.00000000E+00  0.00000000E+00  0.00000000E+00  0.00000000E+00
  0.00000000E+00  0.00000000E+00  0.00000000E+00  0.00000000E+00  0.00000000E+00
  0.00000000E+00  0.00000000E+00  0.00000000E+00  0.00000000E+00  0.00000000E+00
  0.00000000E+00  0.00000000E+00  0.00000000E+00  0.00000000E+00  0.00000000E+00
IOpCl                                      I                0
IROHF                                      I                0
Alpha Orbital Energies                     R   N=         250
 -1.44572393E+01 -1.44125433E+01 -1.43923953E+01 -1.43836970E+01 -1.43774581E+01
 -1.03422186E+01 -1.03293442E+01 -1.03240018E+01 -1.03119727E+01 -1.02756673E+01
 -1.13479057E+00 -1.07520486E+00 -1.02968159E+00 -9.80114565E-01 -9.48559828E-01
 -8.57032084E-01 -7.53133010E-01 -7.37084610E-01 -7.12746012E-01 -6.65965197E-01
 -6.32500543E-01 -5.94273875E-01 -5.79557101E-01 -5.53063372E-01 -5.37460945E-01
 -5.19779078E-01 -4.97813452E-01 -4.84749718E-01 -4.35510045E-01 -3.93729902E-01
 -3.67399074E-01 -3.58790068E-01 -3.33931048E-01 -3.24149147E-01 -2.84862688E-01
  1.08492327E-02  2.03671741E-02  3.29339088E-02  4.10063583E-02  4.77827381E-02
  6.05952374E-02  6.16899264E-02  6.44615276E-02  8.13853842E-02  8.48015169E-02
  9.70811970E-02  9.89329297E-02  1.04549244E-01  1.16581230E-01  1.19233382E-01
  1.37762911E-01  1.45987344E-01  1.51789502E-01  1.52825018E-01  1.56806199E-01
  1.88602491E-01  1.95060637E-01  1.98746600E-01  2.00247254E-01  2.07432397E-01
  2.09050568E-01  2.16403372E-01  2.25157339E-01  2.27839345E-01  2.38459586E-01
  2.39812542E-01  2.46737983E-01  2.52619677E-01  2.57116827E-01  2.59892407E-01
  2.70166867E-01  2.73396957E-01  2.80266799E-01  2.85202379E-01  2.92139703E-01
  2.92192305E-01  3.04953216E-01  3.09153828E-01  3.15008340E-01  3.21399988E-01
  3.25479750E-01  3.43006866E-01  3.55108839E-01  3.68538529E-01  3.77281924E-01
  3.90722830E-01  4.07666469E-01  4.24113910E-01  4.27350721E-01  4.66082791E-01
  4.70762334E-01  5.12706674E-01  5.31489877E-01  5.71565152E-01  5.89507310E-01
  6.10543053E-01  6.15297647E-01  6.17318417E-01  6.37172623E-01  6.46094735E-01
  6.52952160E-01  6.53431201E-01  7.03535814E-01  7.14344028E-01  7.19059629E-01
  7.34086832E-01  7.75685878E-01  7.88654921E-01  7.99745666E-01  8.19981134E-01
  8.22374783E-01  8.44922808E-01  8.71276335E-01  8.79958508E-01  8.85990351E-01
  8.87805206E-01  9.02875643E-01  9.16244162E-01  9.41242364E-01  9.47878189E-01
  9.49403313E-01  9.58368630E-01  9.74330538E-01  9.80617703E-01  9.96043063E-01
  9.96410379E-01  1.01096393E+00  1.03430834E+00  1.04436411E+00  1.07134114E+00