 Entering Gaussian System, Link 0=/shared/gaussian/g16.b01/AVX2/g16/g16
 Initial command:
 /shared/gaussian/g16.b01/AVX2/g16/l1.exe "/scratch/marlene/SCRGAU.134921.Guanine6311-tddft/Gau-10632.inp" -scrdir="/scratch/marlene/SCRGAU.134921.Guanine6311-tddft/"
 Entering Link 1 = /shared/gaussian/g16.b01/AVX2/g16/l1.exe PID=     10633.
  
 Copyright (c) 1988-2017, Gaussian, Inc.  All Rights Reserved.
  
 This is part of the Gaussian(R) 16 program.  It is based on
 the Gaussian(R) 09 system (copyright 2009, Gaussian, Inc.),
 the Gaussian(R) 03 system (copyright 2003, Gaussian, Inc.),
 the Gaussian(R) 98 system (copyright 1998, Gaussian, Inc.),
 the Gaussian(R) 94 system (copyright 1995, Gaussian, Inc.),
 the Gaussian 92(TM) system (copyright 1992, Gaussian, Inc.),
 the Gaussian 90(TM) system (copyright 1990, Gaussian, Inc.),
 the Gaussian 88(TM) system (copyright 1988, Gaussian, Inc.),
 the Gaussian 86(TM) system (copyright 1986, Carnegie Mellon
 University), and the Gaussian 82(TM) system (copyright 1983,
 Carnegie Mellon University). Gaussian is a federally registered
 trademark of Gaussian, Inc.
  
 This software contains proprietary and confidential information,
 including trade secrets, belonging to Gaussian, Inc.
  
 This software is provided under written license and may be
 used, copied, transmitted, or stored only in accord with that
 written license.
  
 The following legend is applicable only to US Government
 contracts under FAR:
  
                    RESTRICTED RIGHTS LEGEND
  
 Use, reproduction and disclosure by the US Government is
 subject to restrictions as set forth in subparagraphs (a)
 and (c) of the Commercial Computer Software - Restricted
 Rights clause in FAR 52.227-19.
  
 Gaussian, Inc.
 340 Quinnipiac St., Bldg. 40, Wallingford CT 06492
  
  
 ---------------------------------------------------------------
 Warning -- This program may not be used in any manner that
 competes with the business of Gaussian, Inc. or will provide
 assistance to any competitor of Gaussian, Inc.  The licensee
 of this program is prohibited from giving any competitor of
 Gaussian, Inc. access to this program.  By using this program,
 the user acknowledges that Gaussian, Inc. is engaged in the
 business of creating and licensing software in the field of
 computational chemistry and represents and warrants to the
 licensee that it is not a competitor of Gaussian, Inc. and that
 it will not use this program in any manner prohibited above.
 ---------------------------------------------------------------
  

 Cite this work as:
 Gaussian 16, Revision B.01,
 M. J. Frisch, G. W. Trucks, H. B. Schlegel, G. E. Scuseria, 
 M. A. Robb, J. R. Cheeseman, G. Scalmani, V. Barone, 
 G. A. Petersson, H. Nakatsuji, X. Li, M. Caricato, A. V. Marenich, 
 J. Bloino, B. G. Janesko, R. Gomperts, B. Mennucci, H. P. Hratchian, 
 J. V. Ortiz, A. F. Izmaylov, J. L. Sonnenberg, D. Williams-Young, 
 F. Ding, F. Lipparini, F. Egidi, J. Goings, B. Peng, A. Petrone, 
 T. Henderson, D. Ranasinghe, V. G. Zakrzewski, J. Gao, N. Rega, 
 G. Zheng, W. Liang, M. Hada, M. Ehara, K. Toyota, R. Fukuda, 
 J. Hasegawa, M. Ishida, T. Nakajima, Y. Honda, O. Kitao, H. Nakai, 
 T. Vreven, K. Throssell, J. A. Montgomery, Jr., J. E. Peralta, 
 F. Ogliaro, M. J. Bearpark, J. J. Heyd, E. N. Brothers, K. N. Kudin, 
 V. N. Staroverov, T. A. Keith, R. Kobayashi, J. Normand, 
 K. Raghavachari, A. P. Rendell, J. C. Burant, S. S. Iyengar, 
 J. Tomasi, M. Cossi, J. M. Millam, M. Klene, C. Adamo, R. Cammi, 
 J. W. Ochterski, R. L. Martin, K. Morokuma, O. Farkas, 
 J. B. Foresman, and D. J. Fox, Gaussian, Inc., Wallingford CT, 2016.
 
 ******************************************
 Gaussian 16:  ES64L-G16RevB.01 20-Dec-2017
                22-Nov-2022 
 ******************************************
 %nprocshared=50
 Will use up to   50 processors via shared memory.
 %mem=5GB
 %chk=Guanine6311-tddft.chk
 ---------------------------------------------------------
 #p freq td=(nstates=10) cam-b3lyp/6-311+G(d,p) symm=loose
 ---------------------------------------------------------
 1/10=4,30=1,38=1/1,3;
 2/12=2,17=4,18=3,40=1/2;
 3/5=4,6=6,7=111,11=9,25=1,30=1,71=2,74=-40,140=1/1,2,3,8;
 4//1;
 5/5=2,38=5,98=1/2;
 8/6=1,10=2,108=10/1;
 9/15=3,41=10,42=1,70=2/14;
 10/5=2004,20=4/2;
 11/6=1,8=1,12=-1,16=1,42=3/1,2,10;
 10/6=3,21=1/2,14;
 6/7=2,8=2,9=2,10=2/1;
 7/8=1,10=1,12=6,13=8,25=1,44=2/1,2,3,16;
 1/10=4,30=1/3;
 99//99;
 Leave Link    1 at Tue Nov 22 13:49:21 2022, MaxMem=   671088640 cpu:               1.8 elap:               0.0
 (Enter /shared/gaussian/g16.b01/AVX2/g16/l101.exe)
 -------------
 Guanine TDDFT
 -------------
 Symbolic Z-matrix:
 Charge =  0 Multiplicity = 1
 N                    -2.16455   0.72937   0. 
 C                    -1.82367   2.06621   0. 
 N                    -0.54093   2.25386   0. 
 C                     0.        0.98762   0. 
 C                     1.36857   0.55797   0. 
 O                     2.40042   1.18613   0. 
 N                     1.42416  -0.86968   0. 
 C                     0.35668  -1.723     0. 
 N                     0.62753  -3.05317   0. 
 N                    -0.88208  -1.3208    0. 
 C                    -0.99616   0.02808   0. 
 H                    -2.5732    2.84265   0. 
 H                     2.36755  -1.23274   0. 
 H                     1.56178  -3.41861   0. 
 H                    -0.152    -3.68733   0. 
 H                    -3.08891   0.32874   0. 
 
 ITRead=  0  0  0  0  0  0  0  0  0  0  0  0  0  0  0  0
 MicOpt= -1 -1 -1 -1 -1 -1 -1 -1 -1 -1 -1 -1 -1 -1 -1 -1
 NAtoms=     16 NQM=       16 NQMF=       0 NMMI=      0 NMMIF=      0
                NMic=       0 NMicF=      0.
                    Isotopes and Nuclear Properties:
 (Nuclear quadrupole moments (NQMom) in fm**2, nuclear magnetic moments (NMagM)
  in nuclear magnetons)

  Atom         1           2           3           4           5           6           7           8           9          10
 IAtWgt=          14          12          14          12          12          16          14          12          14          14
 AtmWgt=  14.0030740  12.0000000  14.0030740  12.0000000  12.0000000  15.9949146  14.0030740  12.0000000  14.0030740  14.0030740
 NucSpn=           2           0           2           0           0           0           2           0           2           2
 AtZEff=  -0.0000000  -0.0000000  -0.0000000  -0.0000000  -0.0000000  -0.0000000  -0.0000000  -0.0000000  -0.0000000  -0.0000000
 NQMom=    2.0440000   0.0000000   2.0440000   0.0000000   0.0000000   0.0000000   2.0440000   0.0000000   2.0440000   2.0440000
 NMagM=    0.4037610   0.0000000   0.4037610   0.0000000   0.0000000   0.0000000   0.4037610   0.0000000   0.4037610   0.4037610
 AtZNuc=   7.0000000   6.0000000   7.0000000   6.0000000   6.0000000   8.0000000   7.0000000   6.0000000   7.0000000   7.0000000

  Atom        11          12          13          14          15          16
 IAtWgt=          12           1           1           1           1           1
 AtmWgt=  12.0000000   1.0078250   1.0078250   1.0078250   1.0078250   1.0078250
 NucSpn=           0           1           1           1           1           1
 AtZEff=  -0.0000000  -0.0000000  -0.0000000  -0.0000000  -0.0000000  -0.0000000
 NQMom=    0.0000000   0.0000000   0.0000000   0.0000000   0.0000000   0.0000000
 NMagM=    0.0000000   2.7928460   2.7928460   2.7928460   2.7928460   2.7928460
 AtZNuc=   6.0000000   1.0000000   1.0000000   1.0000000   1.0000000   1.0000000
 Leave Link  101 at Tue Nov 22 13:49:22 2022, MaxMem=   671088640 cpu:               5.5 elap:               0.1
 (Enter /shared/gaussian/g16.b01/AVX2/g16/l103.exe)

 GradGradGradGradGradGradGradGradGradGradGradGradGradGradGradGradGradGrad
 Berny optimization.
 Initialization pass.
 Trust Radius=3.00D-01 FncErr=1.00D-07 GrdErr=1.00D-07 EigMax=2.50D+02 EigMin=1.00D-04
 Number of steps in this run=      2 maximum allowed number of steps=      2.
 GradGradGradGradGradGradGradGradGradGradGradGradGradGradGradGradGradGrad

 Leave Link  103 at Tue Nov 22 13:49:22 2022, MaxMem=   671088640 cpu:               1.1 elap:               0.0
 (Enter /shared/gaussian/g16.b01/AVX2/g16/l202.exe)
                          Input orientation:                          
 ---------------------------------------------------------------------
 Center     Atomic      Atomic             Coordinates (Angstroms)
 Number     Number       Type             X           Y           Z
 ---------------------------------------------------------------------
      1          7           0       -2.164547    0.729374    0.000000
      2          6           0       -1.823669    2.066210    0.000000
      3          7           0       -0.540931    2.253857    0.000000
      4          6           0        0.000000    0.987621    0.000000
      5          6           0        1.368570    0.557966    0.000000
      6          8           0        2.400416    1.186125    0.000000
      7          7           0        1.424157   -0.869681    0.000000
      8          6           0        0.356682   -1.723002    0.000000
      9          7           0        0.627528   -3.053172    0.000000
     10          7           0       -0.882076   -1.320799    0.000000
     11          6           0       -0.996160    0.028079    0.000000
     12          1           0       -2.573196    2.842649    0.000000
     13          1           0        2.367552   -1.232740    0.000000
     14          1           0        1.561780   -3.418613    0.000000
     15          1           0       -0.152003   -3.687334    0.000000
     16          1           0       -3.088910    0.328741    0.000000
 ---------------------------------------------------------------------
                    Distance matrix (angstroms):
                    1          2          3          4          5
     1  N    0.000000
     2  C    1.379612   0.000000
     3  N    2.227146   1.296390   0.000000
     4  C    2.179898   2.118755   1.376939   0.000000
     5  C    3.537272   3.530608   2.553868   1.434429   0.000000
     6  O    4.587756   4.314794   3.129149   2.408610   1.208011
     7  N    3.928839   4.378108   3.690266   2.340469   1.428729
     8  C    3.517207   4.371734   4.076900   2.733990   2.495342
     9  N    4.701419   5.675953   5.434138   4.089230   3.686389
    10  N    2.418252   3.515455   3.590898   2.471206   2.931751
    11  C    1.362697   2.199716   2.271854   1.383133   2.423371
    12  H    2.152423   1.079189   2.115840   3.172139   4.556018
    13  H    4.938604   5.333798   4.540444   3.245814   2.050510
    14  H    5.575958   6.445506   6.049654   4.674832   3.981270
    15  H    4.853622   5.991472   5.953908   4.677425   4.509403
    16  H    1.007449   2.149333   3.193473   3.158400   4.463370
                    6          7          8          9         10
     6  O    0.000000
     7  N    2.275834   0.000000
     8  C    3.555259   1.366623   0.000000
     9  N    4.595081   2.324274   1.357464   0.000000
    10  N    4.130305   2.349940   1.302416   2.297830   0.000000
    11  C    3.588565   2.581455   2.212796   3.482882   1.353694
    12  H    5.242222   5.455293   5.424883   6.708602   4.493794
    13  H    2.419088   1.010844   2.069772   2.518265   3.250821
    14  H    4.680483   2.552645   2.080230   1.003182   3.220754
    15  H    5.501404   3.228537   2.029128   1.004903   2.476589
    16  H    5.555880   4.669474   4.010206   5.024863   2.755195
                   11         12         13         14         15
    11  C    0.000000
    12  H    3.226274   0.000000
    13  H    3.592245   6.404669   0.000000
    14  H    4.292172   7.503428   2.329659   0.000000
    15  H    3.810104   6.964399   3.517554   1.734723   0.000000
    16  H    2.114237   2.566261   5.675491   5.972569   4.975367
                   16
    16  H    0.000000
 Stoichiometry    C5H5N5O
 Framework group  CS[SG(C5H5N5O)]
 Deg. of freedom    29
 Full point group                 CS      NOp   2
 Largest Abelian subgroup         CS      NOp   2
 Largest concise Abelian subgroup C1      NOp   1
                         Standard orientation:                         
 ---------------------------------------------------------------------
 Center     Atomic      Atomic             Coordinates (Angstroms)
 Number     Number       Type             X           Y           Z
 ---------------------------------------------------------------------
      1          7           0        2.164547    0.729374    0.000000
      2          6           0        1.823669    2.066210    0.000000
      3          7           0        0.540931    2.253857    0.000000
      4          6           0       -0.000000    0.987621    0.000000
      5          6           0       -1.368570    0.557966    0.000000
      6          8           0       -2.400416    1.186125    0.000000
      7          7           0       -1.424157   -0.869681   -0.000000
      8          6           0       -0.356682   -1.723002   -0.000000
      9          7           0       -0.627528   -3.053172   -0.000000
     10          7           0        0.882076   -1.320799   -0.000000
     11          6           0        0.996160    0.028079    0.000000
     12          1           0        2.573196    2.842649    0.000000
     13          1           0       -2.367552   -1.232740   -0.000000
     14          1           0       -1.561780   -3.418613   -0.000000
     15          1           0        0.152003   -3.687334   -0.000000
     16          1           0        3.088910    0.328741    0.000000
 ---------------------------------------------------------------------
 Rotational constants (GHZ):           1.9392099           1.1222569           0.7108657
 Leave Link  202 at Tue Nov 22 13:49:22 2022, MaxMem=   671088640 cpu:               0.4 elap:               0.0
 (Enter /shared/gaussian/g16.b01/AVX2/g16/l301.exe)
 Standard basis: 6-311+G(d,p) (5D, 7F)
 Ernie: Thresh=  0.10000D-02 Tol=  0.10000D-05 Strict=F.
 There are   212 symmetry adapted cartesian basis functions of A'  symmetry.
 There are    71 symmetry adapted cartesian basis functions of A"  symmetry.
 There are   201 symmetry adapted basis functions of A'  symmetry.
 There are    71 symmetry adapted basis functions of A"  symmetry.
   272 basis functions,   436 primitive gaussians,   283 cartesian basis functions
    39 alpha electrons       39 beta electrons
       nuclear repulsion energy       597.2650383593 Hartrees.
 IExCor=20419 DFT=T Ex+Corr=CAM-B3LYP ExCW=0 ScaHFX=  1.000000
 ScaDFX=  1.000000  1.000000  1.000000  0.810000 ScalE2=  1.000000  1.000000
 IRadAn=      5 IRanWt=     -1 IRanGd=            0 ICorTp=0 IEmpDi=  4
 HFx  wShort=  0.000000 wLong=  0.330000 cFull=  0.190000 cShort=  0.000000 cLong=  0.460000
 DFx  wShort=  0.000000 wLong=  0.330000 cFull=  0.190000 cShort=  0.000000 cLong=  0.460000
 NAtoms=   16 NActive=   16 NUniq=   16 SFac= 1.00D+00 NAtFMM=   60 NAOKFM=F Big=F
 Integral buffers will be    131072 words long.
 Raffenetti 1 integral format.
 Two-electron integral symmetry is turned on.
 Leave Link  301 at Tue Nov 22 13:49:22 2022, MaxMem=   671088640 cpu:               2.6 elap:               0.1
 (Enter /shared/gaussian/g16.b01/AVX2/g16/l302.exe)
 NPDir=0 NMtPBC=     1 NCelOv=     1 NCel=       1 NClECP=     1 NCelD=      1
         NCelK=      1 NCelE2=     1 NClLst=     1 CellRange=     0.0.
 One-electron integrals computed using PRISM.
 One-electron integral symmetry used in STVInt
 NBasis=   272 RedAO= T EigKep=  5.16D-06  NBF=   201    71
 NBsUse=   272 1.00D-06 EigRej= -1.00D+00 NBFU=   201    71
 Precomputing XC quadrature grid using
 IXCGrd= 4 IRadAn=           5 IRanWt=          -1 IRanGd=           0 AccXCQ= 0.00D+00.
 Generated NRdTot=       0 NPtTot=           0 NUsed=           0 NTot=          32
 NSgBfM=   283   283   283   283   283 MxSgAt=    16 MxSgA2=    16.
 Leave Link  302 at Tue Nov 22 13:49:22 2022, MaxMem=   671088640 cpu:              12.1 elap:               0.3
 (Enter /shared/gaussian/g16.b01/AVX2/g16/l303.exe)
 DipDrv:  MaxL=1.
 Leave Link  303 at Tue Nov 22 13:49:22 2022, MaxMem=   671088640 cpu:               1.9 elap:               0.1
 (Enter /shared/gaussian/g16.b01/AVX2/g16/l308.exe)
 Leave Link  308 at Tue Nov 22 13:49:22 2022, MaxMem=   671088640 cpu:               2.1 elap:               0.1
 (Enter /shared/gaussian/g16.b01/AVX2/g16/l401.exe)
 ExpMin= 4.38D-02 ExpMax= 8.59D+03 ExpMxC= 1.30D+03 IAcc=3 IRadAn=         5 AccDes= 0.00D+00
 Harris functional with IExCor=20419 and IRadAn=       5 diagonalized for initial guess.
 HarFok:  IExCor=20419 AccDes= 0.00D+00 IRadAn=         5 IDoV= 1 UseB2=F ITyADJ=14
 ICtDFT=  3500011 ScaDFX=  1.000000  1.000000  1.000000  1.000000
 FoFCou: FMM=F IPFlag=           0 FMFlag=      100000 FMFlg1=           0
         NFxFlg=           0 DoJE=T BraDBF=F KetDBF=T FulRan=T
         wScrn=  0.000000 ICntrl=       500 IOpCl=  0 I1Cent=   200000004 NGrid=           0
         NMat0=    1 NMatS0=      1 NMatT0=    0 NMatD0=    1 NMtDS0=    0 NMtDT0=    0
 Petite list used in FoFCou.
 Harris En= -522.909821467735    
 JPrj=0 DoOrth=F DoCkMO=F.
 Initial guess orbital symmetries:
       Occupied  (A') (A') (A') (A') (A') (A') (A') (A') (A') (A')
                 (A') (A') (A') (A') (A') (A') (A') (A') (A') (A')
                 (A') (A') (A') (A') (A') (A') (A") (A') (A') (A')
                 (A") (A") (A') (A") (A') (A") (A') (A") (A")
       Virtual   (A') (A') (A') (A") (A') (A") (A') (A") (A') (A")
                 (A') (A') (A") (A") (A') (A') (A') (A") (A') (A")
                 (A') (A') (A") (A') (A') (A') (A") (A') (A') (A')
                 (A') (A") (A") (A') (A') (A") (A') (A") (A') (A')
                 (A') (A') (A') (A') (A') (A') (A") (A') (A') (A')
                 (A') (A') (A') (A') (A') (A') (A') (A') (A') (A')
                 (A') (A') (A') (A') (A") (A') (A") (A') (A") (A')
                 (A") (A') (A") (A') (A') (A') (A') (A') (A') (A')
                 (A') (A') (A') (A") (A") (A') (A') (A') (A") (A")
                 (A') (A') (A') (A') (A") (A') (A') (A') (A") (A')
                 (A') (A') (A') (A") (A') (A") (A") (A') (A") (A')
                 (A") (A') (A") (A') (A") (A') (A") (A") (A') (A')
                 (A') (A') (A') (A') (A') (A") (A') (A') (A") (A')
                 (A") (A') (A") (A') (A') (A') (A') (A') (A") (A')
                 (A') (A') (A") (A') (A') (A') (A') (A") (A') (A")
                 (A') (A") (A') (A') (A") (A') (A") (A") (A') (A')
                 (A") (A") (A') (A') (A") (A') (A') (A") (A') (A')
                 (A') (A') (A") (A') (A") (A') (A") (A') (A") (A')
                 (A") (A') (A") (A') (A') (A') (A') (A') (A') (A')
                 (A") (A') (A') (A') (A') (A') (A') (A') (A') (A')
                 (A') (A") (A') (A") (A") (A") (A") (A') (A') (A')
                 (A') (A') (A') (A') (A') (A') (A") (A') (A') (A')
                 (A') (A') (A') (A') (A') (A') (A') (A') (A') (A')
                 (A') (A') (A')
 The electronic state of the initial guess is 1-A'.
 Leave Link  401 at Tue Nov 22 13:49:23 2022, MaxMem=   671088640 cpu:              16.4 elap:               0.4
 (Enter /shared/gaussian/g16.b01/AVX2/g16/l502.exe)
 Integral symmetry usage will be decided dynamically.
 Closed shell SCF:
 Using DIIS extrapolation, IDIIS=  1040.
 NGot=   671088640 LenX=   670910981 LenY=   670830451
 Requested convergence on RMS density matrix=1.00D-08 within 128 cycles.
 Requested convergence on MAX density matrix=1.00D-06.
 Requested convergence on             energy=1.00D-06.
 No special actions if energy rises.
 Fock matrices will be formed incrementally for  20 cycles.

 Cycle   1  Pass 1  IDiag  1:
 FoFJK:  IHMeth= 1 ICntrl=       0 DoSepK=T KAlg= 0 I1Cent=           0 FoldK=F
 IRaf=         1 NMat=       1 IRICut=       1 DoRegI=T DoRafI=F ISym2E= 1 IDoP0=0 IntGTp=1.
 FoFCou: FMM=F IPFlag=           0 FMFlag=      100000 FMFlg1=           0
         NFxFlg=           0 DoJE=T BraDBF=F KetDBF=F FulRan=T
         wScrn=  0.000000 ICntrl=       500 IOpCl=  0 I1Cent=           0 NGrid=           0
         NMat0=    1 NMatS0=      1 NMatT0=    0 NMatD0=    1 NMtDS0=    0 NMtDT0=    0
 Petite list used in FoFCou.
 E= -542.342602563046    
 DIIS: error= 6.26D-02 at cycle   1 NSaved=   1.
 NSaved= 1 IEnMin= 1 EnMin= -542.342602563046     IErMin= 1 ErrMin= 6.26D-02
 ErrMax= 6.26D-02  0.00D+00 EMaxC= 1.00D-01 BMatC= 9.01D-01 BMatP= 9.01D-01
 IDIUse=3 WtCom= 3.74D-01 WtEn= 6.26D-01
 Coeff-Com:  0.100D+01
 Coeff-En:   0.100D+01
 Coeff:      0.100D+01
 Gap=     0.298 Goal=   None    Shift=    0.000
 GapD=    0.298 DampG=1.000 DampE=0.500 DampFc=0.5000 IDamp=-1.
 Damping current iteration by 5.00D-01
 RMSDP=6.35D-03 MaxDP=4.45D-01              OVMax= 1.49D-01

 Cycle   2  Pass 1  IDiag  1:
 RMSU=  2.99D-03    CP:  1.05D+00
 E= -542.404343976143     Delta-E=       -0.061741413097 Rises=F Damp=T
 DIIS: error= 2.99D-02 at cycle   2 NSaved=   2.
 NSaved= 2 IEnMin= 2 EnMin= -542.404343976143     IErMin= 2 ErrMin= 2.99D-02
 ErrMax= 2.99D-02  0.00D+00 EMaxC= 1.00D-01 BMatC= 1.92D-01 BMatP= 9.01D-01
 IDIUse=3 WtCom= 7.01D-01 WtEn= 2.99D-01
 Coeff-Com: -0.668D+00 0.167D+01
 Coeff-En:   0.000D+00 0.100D+01
 Coeff:     -0.469D+00 0.147D+01
 Gap=     0.284 Goal=   None    Shift=    0.000
 RMSDP=4.06D-03 MaxDP=4.11D-01 DE=-6.17D-02 OVMax= 1.00D-01

 Cycle   3  Pass 1  IDiag  1:
 RMSU=  3.03D-03    CP:  9.18D-01  9.40D-01
 E= -542.431616000681     Delta-E=       -0.027272024538 Rises=F Damp=F
 DIIS: error= 1.89D-02 at cycle   3 NSaved=   3.
 NSaved= 3 IEnMin= 3 EnMin= -542.431616000681     IErMin= 3 ErrMin= 1.89D-02
 ErrMax= 1.89D-02  0.00D+00 EMaxC= 1.00D-01 BMatC= 5.35D-02 BMatP= 1.92D-01
 IDIUse=3 WtCom= 8.11D-01 WtEn= 1.89D-01
 Coeff-Com: -0.399D+00 0.873D+00 0.526D+00
 Coeff-En:   0.000D+00 0.121D+00 0.879D+00
 Coeff:     -0.323D+00 0.731D+00 0.593D+00
 Gap=     0.272 Goal=   None    Shift=    0.000
 RMSDP=2.57D-03 MaxDP=1.91D-01 DE=-2.73D-02 OVMax= 6.26D-02

 Cycle   4  Pass 1  IDiag  1:
 RMSU=  5.23D-04    CP:  1.00D+00  1.43D+00  5.95D-01
 E= -542.469474084735     Delta-E=       -0.037858084054 Rises=F Damp=F
 DIIS: error= 5.79D-03 at cycle   4 NSaved=   4.
 NSaved= 4 IEnMin= 4 EnMin= -542.469474084735     IErMin= 4 ErrMin= 5.79D-03
 ErrMax= 5.79D-03  0.00D+00 EMaxC= 1.00D-01 BMatC= 6.69D-03 BMatP= 5.35D-02
 IDIUse=3 WtCom= 9.42D-01 WtEn= 5.79D-02
 Coeff-Com: -0.163D+00 0.349D+00 0.344D+00 0.470D+00
 Coeff-En:   0.000D+00 0.000D+00 0.694D-01 0.931D+00
 Coeff:     -0.153D+00 0.329D+00 0.328D+00 0.497D+00
 Gap=     0.275 Goal=   None    Shift=    0.000
 RMSDP=1.30D-03 MaxDP=1.10D-01 DE=-3.79D-02 OVMax= 1.69D-02

 Cycle   5  Pass 1  IDiag  1:
 RMSU=  3.16D-04    CP:  9.58D-01  1.25D+00  8.27D-01  5.41D-01
 E= -542.474239707674     Delta-E=       -0.004765622939 Rises=F Damp=F
 DIIS: error= 1.08D-03 at cycle   5 NSaved=   5.
 NSaved= 5 IEnMin= 5 EnMin= -542.474239707674     IErMin= 5 ErrMin= 1.08D-03
 ErrMax= 1.08D-03  0.00D+00 EMaxC= 1.00D-01 BMatC= 1.98D-04 BMatP= 6.69D-03
 IDIUse=3 WtCom= 9.89D-01 WtEn= 1.08D-02
 Coeff-Com: -0.315D-01 0.664D-01 0.931D-01 0.239D+00 0.633D+00
 Coeff-En:   0.000D+00 0.000D+00 0.000D+00 0.000D+00 0.100D+01
 Coeff:     -0.311D-01 0.656D-01 0.921D-01 0.237D+00 0.637D+00
 Gap=     0.276 Goal=   None    Shift=    0.000
 RMSDP=8.54D-05 MaxDP=2.41D-03 DE=-4.77D-03 OVMax= 4.27D-03

 Cycle   6  Pass 1  IDiag  1:
 RMSU=  6.39D-05    CP:  9.58D-01  1.27D+00  8.28D-01  5.91D-01  9.97D-01
 E= -542.474385135693     Delta-E=       -0.000145428019 Rises=F Damp=F
 DIIS: error= 3.11D-04 at cycle   6 NSaved=   6.
 NSaved= 6 IEnMin= 6 EnMin= -542.474385135693     IErMin= 6 ErrMin= 3.11D-04
 ErrMax= 3.11D-04  0.00D+00 EMaxC= 1.00D-01 BMatC= 1.36D-05 BMatP= 1.98D-04
 IDIUse=3 WtCom= 9.97D-01 WtEn= 3.11D-03
 Coeff-Com:  0.108D-01-0.234D-01-0.111D-01 0.315D-01 0.285D+00 0.708D+00
 Coeff-En:   0.000D+00 0.000D+00 0.000D+00 0.000D+00 0.000D+00 0.100D+01
 Coeff:      0.108D-01-0.234D-01-0.111D-01 0.314D-01 0.284D+00 0.709D+00
 Gap=     0.276 Goal=   None    Shift=    0.000
 RMSDP=9.21D-05 MaxDP=8.27D-03 DE=-1.45D-04 OVMax= 1.27D-03

 Cycle   7  Pass 1  IDiag  1:
 RMSU=  3.86D-05    CP:  9.55D-01  1.26D+00  8.44D-01  5.86D-01  1.11D+00
                    CP:  1.03D+00
 E= -542.474397997059     Delta-E=       -0.000012861366 Rises=F Damp=F
 DIIS: error= 9.69D-05 at cycle   7 NSaved=   7.
 NSaved= 7 IEnMin= 7 EnMin= -542.474397997059     IErMin= 7 ErrMin= 9.69D-05
 ErrMax= 9.69D-05  0.00D+00 EMaxC= 1.00D-01 BMatC= 2.13D-06 BMatP= 1.36D-05
 IDIUse=1 WtCom= 1.00D+00 WtEn= 0.00D+00
 Coeff-Com:  0.863D-02-0.185D-01-0.151D-01-0.114D-01 0.812D-01 0.350D+00
 Coeff-Com:  0.605D+00
 Coeff:      0.863D-02-0.185D-01-0.151D-01-0.114D-01 0.812D-01 0.350D+00
 Coeff:      0.605D+00
 Gap=     0.276 Goal=   None    Shift=    0.000
 RMSDP=3.12D-05 MaxDP=2.69D-03 DE=-1.29D-05 OVMax= 4.48D-04

 Cycle   8  Pass 1  IDiag  1:
 RMSU=  9.54D-06    CP:  9.54D-01  1.26D+00  8.49D-01  5.86D-01  1.13D+00
                    CP:  1.09D+00  9.70D-01
 E= -542.474399966842     Delta-E=       -0.000001969784 Rises=F Damp=F
 DIIS: error= 4.01D-05 at cycle   8 NSaved=   8.
 NSaved= 8 IEnMin= 8 EnMin= -542.474399966842     IErMin= 8 ErrMin= 4.01D-05
 ErrMax= 4.01D-05  0.00D+00 EMaxC= 1.00D-01 BMatC= 2.36D-07 BMatP= 2.13D-06
 IDIUse=1 WtCom= 1.00D+00 WtEn= 0.00D+00
 Coeff-Com:  0.154D-02-0.325D-02-0.437D-02-0.127D-01-0.151D-01 0.203D-01
 Coeff-Com:  0.234D+00 0.780D+00
 Coeff:      0.154D-02-0.325D-02-0.437D-02-0.127D-01-0.151D-01 0.203D-01
 Coeff:      0.234D+00 0.780D+00
 Gap=     0.276 Goal=   None    Shift=    0.000
 RMSDP=2.02D-05 MaxDP=1.79D-03 DE=-1.97D-06 OVMax= 1.99D-04

 Cycle   9  Pass 1  IDiag  1:
 RMSU=  3.82D-06    CP:  9.54D-01  1.25D+00  8.52D-01  5.80D-01  1.16D+00
                    CP:  1.14D+00  1.11D+00  9.11D-01
 E= -542.474400250424     Delta-E=       -0.000000283582 Rises=F Damp=F
 DIIS: error= 1.35D-05 at cycle   9 NSaved=   9.
 NSaved= 9 IEnMin= 9 EnMin= -542.474400250424     IErMin= 9 ErrMin= 1.35D-05
 ErrMax= 1.35D-05  0.00D+00 EMaxC= 1.00D-01 BMatC= 2.49D-08 BMatP= 2.36D-07
 IDIUse=1 WtCom= 1.00D+00 WtEn= 0.00D+00
 Coeff-Com: -0.377D-03 0.817D-03-0.227D-04-0.377D-02-0.124D-01-0.293D-01
 Coeff-Com:  0.140D-01 0.284D+00 0.748D+00
 Coeff:     -0.377D-03 0.817D-03-0.227D-04-0.377D-02-0.124D-01-0.293D-01
 Coeff:      0.140D-01 0.284D+00 0.748D+00
 Gap=     0.276 Goal=   None    Shift=    0.000
 RMSDP=4.00D-06 MaxDP=3.25D-04 DE=-2.84D-07 OVMax= 6.93D-05

 Cycle  10  Pass 1  IDiag  1:
 RMSU=  1.03D-06    CP:  9.54D-01  1.25D+00  8.53D-01  5.78D-01  1.17D+00
                    CP:  1.15D+00  1.14D+00  9.78D-01  1.20D+00
 E= -542.474400278489     Delta-E=       -0.000000028065 Rises=F Damp=F
 DIIS: error= 7.27D-06 at cycle  10 NSaved=  10.
 NSaved=10 IEnMin=10 EnMin= -542.474400278489     IErMin=10 ErrMin= 7.27D-06
 ErrMax= 7.27D-06  0.00D+00 EMaxC= 1.00D-01 BMatC= 7.10D-09 BMatP= 2.49D-08
 IDIUse=1 WtCom= 1.00D+00 WtEn= 0.00D+00
 Coeff-Com: -0.433D-03 0.924D-03 0.697D-03 0.267D-03-0.277D-02-0.177D-01
 Coeff-Com: -0.374D-01 0.484D-02 0.410D+00 0.641D+00
 Coeff:     -0.433D-03 0.924D-03 0.697D-03 0.267D-03-0.277D-02-0.177D-01
 Coeff:     -0.374D-01 0.484D-02 0.410D+00 0.641D+00
 Gap=     0.276 Goal=   None    Shift=    0.000
 RMSDP=1.11D-06 MaxDP=7.82D-05 DE=-2.81D-08 OVMax= 4.73D-05

 Cycle  11  Pass 1  IDiag  1:
 RMSU=  4.54D-07    CP:  9.54D-01  1.25D+00  8.53D-01  5.77D-01  1.17D+00
                    CP:  1.15D+00  1.16D+00  9.77D-01  1.30D+00  8.71D-01
 E= -542.474400286009     Delta-E=       -0.000000007520 Rises=F Damp=F
 DIIS: error= 1.51D-06 at cycle  11 NSaved=  11.
 NSaved=11 IEnMin=11 EnMin= -542.474400286009     IErMin=11 ErrMin= 1.51D-06
 ErrMax= 1.51D-06  0.00D+00 EMaxC= 1.00D-01 BMatC= 3.35D-10 BMatP= 7.10D-09
 IDIUse=1 WtCom= 1.00D+00 WtEn= 0.00D+00
 Coeff-Com: -0.995D-04 0.211D-03 0.201D-03 0.316D-03 0.928D-04-0.397D-02
 Coeff-Com: -0.153D-01-0.194D-01 0.839D-01 0.220D+00 0.734D+00
 Coeff:     -0.995D-04 0.211D-03 0.201D-03 0.316D-03 0.928D-04-0.397D-02
 Coeff:     -0.153D-01-0.194D-01 0.839D-01 0.220D+00 0.734D+00
 Gap=     0.276 Goal=   None    Shift=    0.000
 RMSDP=2.17D-07 MaxDP=1.31D-05 DE=-7.52D-09 OVMax= 7.75D-06

 Cycle  12  Pass 1  IDiag  1:
 RMSU=  1.07D-07    CP:  9.54D-01  1.25D+00  8.53D-01  5.77D-01  1.17D+00
                    CP:  1.15D+00  1.16D+00  9.80D-01  1.33D+00  9.58D-01
                    CP:  1.02D+00
 E= -542.474400286406     Delta-E=       -0.000000000397 Rises=F Damp=F
 DIIS: error= 6.75D-07 at cycle  12 NSaved=  12.
 NSaved=12 IEnMin=12 EnMin= -542.474400286406     IErMin=12 ErrMin= 6.75D-07
 ErrMax= 6.75D-07  0.00D+00 EMaxC= 1.00D-01 BMatC= 7.27D-11 BMatP= 3.35D-10
 IDIUse=1 WtCom= 1.00D+00 WtEn= 0.00D+00
 Coeff-Com:  0.128D-04-0.283D-04 0.719D-05 0.150D-03 0.649D-03 0.103D-02
 Coeff-Com: -0.153D-02-0.102D-01-0.281D-01-0.462D-02 0.334D+00 0.708D+00
 Coeff:      0.128D-04-0.283D-04 0.719D-05 0.150D-03 0.649D-03 0.103D-02
 Coeff:     -0.153D-02-0.102D-01-0.281D-01-0.462D-02 0.334D+00 0.708D+00
 Gap=     0.276 Goal=   None    Shift=    0.000
 RMSDP=1.12D-07 MaxDP=9.47D-06 DE=-3.97D-10 OVMax= 5.62D-06

 Cycle  13  Pass 1  IDiag  1:
 RMSU=  5.87D-08    CP:  9.54D-01  1.25D+00  8.53D-01  5.77D-01  1.17D+00
                    CP:  1.15D+00  1.16D+00  9.76D-01  1.34D+00  9.73D-01
                    CP:  1.11D+00  1.06D+00
 E= -542.474400286494     Delta-E=       -0.000000000088 Rises=F Damp=F
 DIIS: error= 1.64D-07 at cycle  13 NSaved=  13.
 NSaved=13 IEnMin=13 EnMin= -542.474400286494     IErMin=13 ErrMin= 1.64D-07
 ErrMax= 1.64D-07  0.00D+00 EMaxC= 1.00D-01 BMatC= 3.77D-12 BMatP= 7.27D-11
 IDIUse=1 WtCom= 1.00D+00 WtEn= 0.00D+00
 Coeff-Com:  0.113D-04-0.242D-04-0.180D-04-0.667D-05 0.145D-03 0.517D-03
 Coeff-Com:  0.103D-02-0.567D-03-0.114D-01-0.189D-01-0.104D-01 0.130D+00
 Coeff-Com:  0.909D+00
 Coeff:      0.113D-04-0.242D-04-0.180D-04-0.667D-05 0.145D-03 0.517D-03
 Coeff:      0.103D-02-0.567D-03-0.114D-01-0.189D-01-0.104D-01 0.130D+00
 Coeff:      0.909D+00
 Gap=     0.276 Goal=   None    Shift=    0.000
 RMSDP=4.21D-08 MaxDP=3.99D-06 DE=-8.80D-11 OVMax= 1.55D-06

 Cycle  14  Pass 1  IDiag  1:
 RMSU=  1.31D-08    CP:  9.54D-01  1.25D+00  8.53D-01  5.77D-01  1.17D+00
                    CP:  1.15D+00  1.16D+00  9.75D-01  1.34D+00  9.79D-01
                    CP:  1.12D+00  1.16D+00  1.27D+00
 E= -542.474400286497     Delta-E=       -0.000000000003 Rises=F Damp=F
 DIIS: error= 8.43D-08 at cycle  14 NSaved=  14.
 NSaved=14 IEnMin=14 EnMin= -542.474400286497     IErMin=14 ErrMin= 8.43D-08
 ErrMax= 8.43D-08  0.00D+00 EMaxC= 1.00D-01 BMatC= 6.77D-13 BMatP= 3.77D-12
 IDIUse=1 WtCom= 1.00D+00 WtEn= 0.00D+00
 Coeff-Com:  0.295D-05-0.617D-05-0.870D-05-0.241D-04-0.263D-04 0.637D-04
 Coeff-Com:  0.630D-03 0.993D-03-0.116D-02-0.770D-02-0.467D-01-0.283D-01
 Coeff-Com:  0.372D+00 0.710D+00
 Coeff:      0.295D-05-0.617D-05-0.870D-05-0.241D-04-0.263D-04 0.637D-04
 Coeff:      0.630D-03 0.993D-03-0.116D-02-0.770D-02-0.467D-01-0.283D-01
 Coeff:      0.372D+00 0.710D+00
 Gap=     0.276 Goal=   None    Shift=    0.000
 RMSDP=1.53D-08 MaxDP=1.34D-06 DE=-3.18D-12 OVMax= 5.11D-07

 Cycle  15  Pass 1  IDiag  1:
 RMSU=  5.18D-09    CP:  9.54D-01  1.25D+00  8.53D-01  5.77D-01  1.17D+00
                    CP:  1.15D+00  1.16D+00  9.75D-01  1.34D+00  9.79D-01
                    CP:  1.13D+00  1.20D+00  1.37D+00  1.12D+00
 E= -542.474400286499     Delta-E=       -0.000000000002 Rises=F Damp=F
 DIIS: error= 2.36D-08 at cycle  15 NSaved=  15.
 NSaved=15 IEnMin=15 EnMin= -542.474400286499     IErMin=15 ErrMin= 2.36D-08
 ErrMax= 2.36D-08  0.00D+00 EMaxC= 1.00D-01 BMatC= 6.78D-14 BMatP= 6.77D-13
 IDIUse=1 WtCom= 1.00D+00 WtEn= 0.00D+00
 Coeff-Com: -0.670D-06 0.145D-05 0.126D-06-0.452D-05-0.242D-04-0.434D-04
 Coeff-Com:  0.363D-04 0.326D-03 0.127D-02 0.398D-03-0.111D-01-0.233D-01
 Coeff-Com: -0.377D-01 0.214D+00 0.856D+00
 Coeff:     -0.670D-06 0.145D-05 0.126D-06-0.452D-05-0.242D-04-0.434D-04
 Coeff:      0.363D-04 0.326D-03 0.127D-02 0.398D-03-0.111D-01-0.233D-01
 Coeff:     -0.377D-01 0.214D+00 0.856D+00
 Gap=     0.276 Goal=   None    Shift=    0.000
 RMSDP=5.88D-09 MaxDP=6.11D-07 DE=-1.59D-12 OVMax= 2.64D-07

 SCF Done:  E(RCAM-B3LYP) =  -542.474400286     A.U. after   15 cycles
            NFock= 15  Conv=0.59D-08     -V/T= 2.0030
 KE= 5.408723896156D+02 PE=-2.462102251816D+03 EE= 7.814904235542D+02
 Leave Link  502 at Tue Nov 22 13:49:32 2022, MaxMem=   671088640 cpu:             483.7 elap:               9.8
 (Enter /shared/gaussian/g16.b01/AVX2/g16/l801.exe)
 DoSCS=F DFT=T ScalE2(SS,OS)=  1.000000  1.000000
 ExpMin= 4.38D-02 ExpMax= 8.59D+03 ExpMxC= 1.30D+03 IAcc=3 IRadAn=         5 AccDes= 0.00D+00
 HarFok:  IExCor=  205 AccDes= 0.00D+00 IRadAn=         5 IDoV=-2 UseB2=F ITyADJ=14
 ICtDFT= 12500011 ScaDFX=  1.000000  1.000000  1.000000  1.000000
 Largest valence mixing into a core orbital is  5.11D-05
 Largest core mixing into a valence orbital is  1.31D-05
 Range of M.O.s used for correlation:    12   272
 NBasis=   272 NAE=    39 NBE=    39 NFC=    11 NFV=     0
 NROrb=    261 NOA=    28 NOB=    28 NVA=   233 NVB=   233

 **** Warning!!: The largest alpha MO coefficient is  0.13153046D+03

 Leave Link  801 at Tue Nov 22 13:49:32 2022, MaxMem=   671088640 cpu:               2.3 elap:               0.1
 (Enter /shared/gaussian/g16.b01/AVX2/g16/l914.exe)
 RHF ground state
 Two-electron integrals replicated using symmetry.
 MDV=   671088640 DFT=T DoStab=F Mixed=T DoRPA=T DoScal=F NonHer=T
 Making orbital integer symmetry assigments:
 Orbital symmetries:
       Occupied  (A') (A') (A') (A') (A') (A') (A') (A') (A') (A')
                 (A') (A') (A') (A') (A') (A') (A') (A') (A') (A')
                 (A') (A') (A') (A') (A') (A') (A") (A') (A") (A')
                 (A') (A") (A') (A") (A") (A") (A') (A') (A")
       Virtual   (A') (A') (A") (A") (A') (A') (A') (A") (A") (A')
                 (A') (A') (A") (A') (A") (A') (A') (A") (A') (A")
                 (A') (A') (A') (A') (A") (A') (A') (A") (A') (A')
                 (A") (A') (A') (A") (A') (A") (A') (A') (A') (A')
                 (A") (A') (A') (A') (A') (A') (A') (A') (A') (A")
                 (A') (A') (A') (A') (A') (A') (A') (A') (A') (A')
                 (A') (A') (A') (A') (A') (A") (A") (A") (A') (A")
                 (A') (A') (A') (A") (A') (A') (A') (A') (A') (A')
                 (A') (A') (A") (A') (A") (A') (A') (A") (A') (A')
                 (A") (A') (A') (A') (A") (A') (A') (A') (A') (A")
                 (A') (A') (A') (A") (A') (A") (A") (A") (A') (A")
                 (A') (A") (A') (A") (A') (A") (A') (A") (A') (A')
                 (A') (A') (A') (A') (A') (A") (A') (A") (A') (A")
                 (A') (A') (A') (A") (A') (A') (A') (A') (A") (A')
                 (A') (A') (A") (A') (A') (A') (A') (A") (A') (A')
                 (A") (A") (A') (A') (A") (A') (A") (A") (A') (A")
                 (A') (A') (A") (A') (A") (A') (A') (A") (A') (A')
                 (A') (A') (A") (A') (A") (A') (A') (A") (A") (A')
                 (A') (A") (A') (A") (A') (A') (A') (A') (A') (A')
                 (A') (A") (A') (A') (A') (A') (A') (A') (A') (A')
                 (A') (A") (A") (A') (A") (A") (A") (A') (A') (A')
                 (A') (A') (A') (A') (A') (A') (A") (A') (A') (A')
                 (A') (A') (A') (A') (A') (A') (A') (A') (A') (A')
                 (A') (A') (A')
    40 initial guesses have been made.
 Convergence on wavefunction:    0.000001000000000
 Davidson Disk Diagonalization:  ConvIn= 1.00D-06 SkipCon=T Conv= 1.00D-06.
 Max sub-space:  2000 roots to seek:    40 dimension of matrix:        13048
 Iteration     1 Dimension    40 NMult     0 NNew     40
 CISAX will form    40 AO SS matrices at one time.
 NMat=    40 NSing=    40 JSym2X=-1.
 FoFJK:  IHMeth= 1 ICntrl=       0 DoSepK=T KAlg= 0 I1Cent=           0 FoldK=F
 IRaf=         1 NMat=      80 IRICut=       1 DoRegI=T DoRafI=F ISym2E=-1 IDoP0=3 IntGTp=3.
 FoFCou: FMM=F IPFlag=           0 FMFlag=      100000 FMFlg1=           0
         NFxFlg=           0 DoJE=F BraDBF=F KetDBF=F FulRan=T
         wScrn=  0.000000 ICntrl=       500 IOpCl=  0 I1Cent=           0 NGrid=           0
         NMat0=   40 NMatS0=     40 NMatT0=    0 NMatD0=   40 NMtDS0=    0 NMtDT0=    0
 Petite list used in FoFCou.
 New state      2 was old state      3
 New state      3 was old state      2
 New state      4 was old state     15
 New state      5 was old state      4
 New state      6 was old state      5
 New state      7 was old state      6
 New state      8 was old state     22
 New state      9 was old state      8
 New state     10 was old state      7
 Excitation Energies [eV] at current iteration:
 Root      1 :     5.296028791415999
 Root      2 :     5.767819431676465
 Root      3 :     5.769710634688766
 Root      4 :     6.013433137710440
 Root      5 :     6.166971777039764
 Root      6 :     6.436734125445518
 Root      7 :     6.504081536602652
 Root      8 :     6.713754161303032
 Root      9 :     6.858722422105169
 Root     10 :     6.890504135238344
 Root     11 :     6.904958833931236
 Root     12 :     7.041289496726779
 Root     13 :     7.207998013656715
 Root     14 :     7.220108526386370
 Root     15 :     7.369149172456493
 Root     16 :     7.471405615141049
 Root     17 :     7.491583850964513
 Root     18 :     7.579719745973097
 Root     19 :     7.653780536191142
 Root     20 :     7.774149199995570
 Root     21 :     7.853323436214668
 Root     22 :     7.857618363046532
 Root     23 :     7.920651070770332
 Root     24 :     7.982374863826963
 Root     25 :     8.134600623816651
 Root     26 :     8.161048892574325
 Root     27 :     8.245840990046233
 Root     28 :     8.345223214328250
 Root     29 :     8.407332880893549
 Root     30 :     8.456365568744339
 Root     31 :     8.578695847539507
 Root     32 :     8.606702828574084
 Root     33 :     8.657908370453631
 Root     34 :     8.660581658694719
 Root     35 :     8.767381055702575
 Root     36 :     8.811893185975730
 Root     37 :     8.894928026962868
 Root     38 :     8.931955483094907
 Root     39 :     8.944550380690385
 Root     40 :     9.056064811596425
 Iteration     2 Dimension    60 NMult    40 NNew     20
 CISAX will form    20 AO SS matrices at one time.
 NMat=    20 NSing=    20 JSym2X=-1.
 New state      1 was old state      2
 Root      1 not converged, maximum delta is    0.057414277386812
 New state      2 was old state      1
 Root      2 not converged, maximum delta is    0.048080015913203
 New state      3 was old state      4
 Root      3 not converged, maximum delta is    0.113662888279626
 New state      4 was old state      5
 Root      4 not converged, maximum delta is    0.120947863557022
 New state      5 was old state      3
 Root      5 not converged, maximum delta is    0.079325557182434
 Root      6 not converged, maximum delta is    0.074289079271193
 Root      7 not converged, maximum delta is    0.053742354010897
 Root      8 not converged, maximum delta is    0.080401414425115
 New state      9 was old state     10
 Root      9 not converged, maximum delta is    0.146148923389045
 New state     10 was old state      9
 Root     10 not converged, maximum delta is    0.084473930408944
 Excitation Energies [eV] at current iteration:
 Root      1 :     5.216072745709002   Change is   -0.551746685967463
 Root      2 :     5.219514940875444   Change is   -0.076513850540555
 Root      3 :     5.633059266740061   Change is   -0.380373870970378
 Root      4 :     5.670336653646542   Change is   -0.496635123393222
 Root      5 :     5.684602276200883   Change is   -0.085108358487884
 Root      6 :     6.303823308292847   Change is   -0.132910817152672
 Root      7 :     6.365128370096114   Change is   -0.138953166506538
 Root      8 :     6.488675331671622   Change is   -0.225078829631409
 Root      9 :     6.687507876585027   Change is   -0.202996258653318
 Root     10 :     6.701005916864377   Change is   -0.157716505240793
 Iteration     3 Dimension    80 NMult    60 NNew     20
 CISAX will form    20 AO SS matrices at one time.
 NMat=    20 NSing=    20 JSym2X=-1.
 Root      1 not converged, maximum delta is    0.010545185456800
 Root      2 not converged, maximum delta is    0.003621583407660
 Root      3 not converged, maximum delta is    0.018320790744961
 Root      4 not converged, maximum delta is    0.026627274255383
 Root      5 not converged, maximum delta is    0.014254849907267
 Root      6 not converged, maximum delta is    0.016125716519088
 Root      7 not converged, maximum delta is    0.012004793694513
 Root      8 not converged, maximum delta is    0.198670499799862
 Root      9 not converged, maximum delta is    0.330540776937398
 Root     10 not converged, maximum delta is    0.013023434909914
 Excitation Energies [eV] at current iteration:
 Root      1 :     5.187046136857258   Change is   -0.029026608851744
 Root      2 :     5.218064126782611   Change is   -0.001450814092833
 Root      3 :     5.615326190359880   Change is   -0.017733076380181
 Root      4 :     5.637580395126832   Change is   -0.032756258519710
 Root      5 :     5.682981480125417   Change is   -0.001620796075466
 Root      6 :     6.299336453866763   Change is   -0.004486854426083
 Root      7 :     6.360640979897641   Change is   -0.004487390198473
 Root      8 :     6.424104681995065   Change is   -0.064570649676558
 Root      9 :     6.504239753648526   Change is   -0.183268122936501
 Root     10 :     6.694732463702320   Change is   -0.006273453162056
 Iteration     4 Dimension   100 NMult    80 NNew     20
 CISAX will form    20 AO SS matrices at one time.
 NMat=    20 NSing=    20 JSym2X=-1.
 Root      1 not converged, maximum delta is    0.003393555481160
 Root      2 not converged, maximum delta is    0.001227430346238
 Root      3 not converged, maximum delta is    0.002533407868751
 Root      4 not converged, maximum delta is    0.005077748742733
 Root      5 not converged, maximum delta is    0.000405841642577
 Root      6 not converged, maximum delta is    0.002696500644007
 Root      7 not converged, maximum delta is    0.003915851028465
 Root      8 not converged, maximum delta is    0.051714423016640
 Root      9 not converged, maximum delta is    0.046484554127768
 Root     10 not converged, maximum delta is    0.026766393185519
 Excitation Energies [eV] at current iteration:
 Root      1 :     5.184844999433939   Change is   -0.002201137423319
 Root      2 :     5.218000642775492   Change is   -0.000063484007119
 Root      3 :     5.614554946618501   Change is   -0.000771243741379
 Root      4 :     5.634068573896434   Change is   -0.003511821230399
 Root      5 :     5.682936033380565   Change is   -0.000045446744852
 Root      6 :     6.299002295388499   Change is   -0.000334158478265
 Root      7 :     6.360338428720032   Change is   -0.000302551177609
 Root      8 :     6.404701551067435   Change is   -0.019403130927629
 Root      9 :     6.486455243566501   Change is   -0.017784510082024
 Root     10 :     6.693548461027229   Change is   -0.001184002675091
 Iteration     5 Dimension   120 NMult   100 NNew     20
 CISAX will form    20 AO SS matrices at one time.
 NMat=    20 NSing=    20 JSym2X=-1.
 Root      1 not converged, maximum delta is    0.000724074087302
 Root      2 not converged, maximum delta is    0.000156764489345
 Root      3 not converged, maximum delta is    0.000268583097958
 Root      4 not converged, maximum delta is    0.001174267840281
 Root      5 not converged, maximum delta is    0.000082870403939
 Root      6 not converged, maximum delta is    0.000495512134297
 Root      7 not converged, maximum delta is    0.001005020107898
 Root      8 not converged, maximum delta is    0.005600827335067
 Root      9 not converged, maximum delta is    0.005466711722295
 Root     10 not converged, maximum delta is    0.280194994854298
 Excitation Energies [eV] at current iteration:
 Root      1 :     5.184665211970921   Change is   -0.000179787463018
 Root      2 :     5.217998336132650   Change is   -0.000002306642842
 Root      3 :     5.614527204212863   Change is   -0.000027742405638
 Root      4 :     5.633771155145965   Change is   -0.000297418750469
 Root      5 :     5.682934461101193   Change is   -0.000001572279372
 Root      6 :     6.298982900736489   Change is   -0.000019394652010
 Root      7 :     6.360313775824640   Change is   -0.000024652895393
 Root      8 :     6.402851658638339   Change is   -0.001849892429096
 Root      9 :     6.485345482229591   Change is   -0.001109761336910
 Root     10 :     6.687653972769580   Change is   -0.005894488257649
 Iteration     6 Dimension   140 NMult   120 NNew     20
 CISAX will form    20 AO SS matrices at one time.
 NMat=    20 NSing=    20 JSym2X=-1.
 Root      1 not converged, maximum delta is    0.000244406067333
 Root      2 not converged, maximum delta is    0.000023587555246
 Root      3 not converged, maximum delta is    0.000049565802797
 Root      4 not converged, maximum delta is    0.000589691168698
 Root      5 not converged, maximum delta is    0.000012402901459
 Root      6 not converged, maximum delta is    0.000083827948754
 Root      7 not converged, maximum delta is    0.000179660627161
 Root      8 not converged, maximum delta is    0.001019053640883
 Root      9 not converged, maximum delta is    0.000610544186767
 Root     10 not converged, maximum delta is    0.493251958122836
 Excitation Energies [eV] at current iteration:
 Root      1 :     5.184654007957238   Change is   -0.000011204013683
 Root      2 :     5.217998262171148   Change is   -0.000000073961502
 Root      3 :     5.614526310033098   Change is   -0.000000894179766
 Root      4 :     5.633745419472544   Change is   -0.000025735673421
 Root      5 :     5.682934403746490   Change is   -0.000000057354703
 Root      6 :     6.298981876336752   Change is   -0.000001024399737
 Root      7 :     6.360311844015487   Change is   -0.000001931809153
 Root      8 :     6.402749023719907   Change is   -0.000102634918432
 Root      9 :     6.485286134060273   Change is   -0.000059348169318
 Root     10 :     6.636945840867534   Change is   -0.050708131902046
 Iteration     7 Dimension   160 NMult   140 NNew     20
 CISAX will form    20 AO SS matrices at one time.
 NMat=    20 NSing=    20 JSym2X=-1.
 Root      1 not converged, maximum delta is    0.000070735885823
 Root      2 not converged, maximum delta is    0.000002853316916
 Root      3 not converged, maximum delta is    0.000009324327795
 Root      4 not converged, maximum delta is    0.000094803584120
 Root      5 not converged, maximum delta is    0.000003584015767
 Root      6 not converged, maximum delta is    0.000014038720761
 Root      7 not converged, maximum delta is    0.000026550299872
 Root      8 not converged, maximum delta is    0.000152529683803
 Root      9 not converged, maximum delta is    0.000155612781982
 Root     10 not converged, maximum delta is    0.014897369590884
 Excitation Energies [eV] at current iteration:
 Root      1 :     5.184653090311802   Change is   -0.000000917645435
 Root      2 :     5.217998259763561   Change is   -0.000000002407588
 Root      3 :     5.614526273661161   Change is   -0.000000036371937
 Root      4 :     5.633743403981331   Change is   -0.000002015491213
 Root      5 :     5.682934401289609   Change is   -0.000000002456880
 Root      6 :     6.298981830818505   Change is   -0.000000045518247
 Root      7 :     6.360311742817929   Change is   -0.000000101197558
 Root      8 :     6.402744061233118   Change is   -0.000004962486789
 Root      9 :     6.485283300909649   Change is   -0.000002833150624
 Root     10 :     6.629975704529176   Change is   -0.006970136338358
 Iteration     8 Dimension   180 NMult   160 NNew     20
 CISAX will form    20 AO SS matrices at one time.
 NMat=    20 NSing=    20 JSym2X=-1.
 Root      1 not converged, maximum delta is    0.000013463933691
 Root      2 has converged.
 Root      3 not converged, maximum delta is    0.000001347630507
 Root      4 not converged, maximum delta is    0.000016275814686
 Root      5 has converged.
 Root      6 not converged, maximum delta is    0.000001689051646
 Root      7 not converged, maximum delta is    0.000002440876883
 Root      8 not converged, maximum delta is    0.000034873853560
 Root      9 not converged, maximum delta is    0.000032027488261
 Root     10 not converged, maximum delta is    0.002858082498332
 Excitation Energies [eV] at current iteration:
 Root      1 :     5.184653042445719   Change is   -0.000000047866084
 Root      2 :     5.217998259698321   Change is   -0.000000000065240
 Root      3 :     5.614526272232357   Change is   -0.000000001428803
 Root      4 :     5.633743304930872   Change is   -0.000000099050459
 Root      5 :     5.682934401194150   Change is   -0.000000000095459
 Root      6 :     6.298981829075712   Change is   -0.000000001742794
 Root      7 :     6.360311738778481   Change is   -0.000000004039448
 Root      8 :     6.402743834009455   Change is   -0.000000227223663
 Root      9 :     6.485283153456582   Change is   -0.000000147453067
 Root     10 :     6.629368334807731   Change is   -0.000607369721445
 Iteration     9 Dimension   196 NMult   180 NNew     16
 CISAX will form    16 AO SS matrices at one time.
 NMat=    16 NSing=    16 JSym2X=-1.
 Root      1 not converged, maximum delta is    0.000003269829576
 Root      2 has converged.
 Root      3 has converged.
 Root      4 not converged, maximum delta is    0.000004069300750
 Root      5 has converged.
 Root      6 has converged.
 Root      7 has converged.
 Root      8 not converged, maximum delta is    0.000006855147165
 Root      9 not converged, maximum delta is    0.000006486446018
 Root     10 not converged, maximum delta is    0.000725118111230
 Excitation Energies [eV] at current iteration:
 Root      1 :     5.184653039501399   Change is   -0.000000002944320
 Root      2 :     5.217998259697517   Change is   -0.000000000000804
 Root      3 :     5.614526272166849   Change is   -0.000000000065508
 Root      4 :     5.633743300218638   Change is   -0.000000004712234
 Root      5 :     5.682934401192848   Change is   -0.000000000001302
 Root      6 :     6.298981828997315   Change is   -0.000000000078397
 Root      7 :     6.360311738596328   Change is   -0.000000000182153
 Root      8 :     6.402743823197058   Change is   -0.000000010812397
 Root      9 :     6.485283145926678   Change is   -0.000000007529905
 Root     10 :     6.629317813719995   Change is   -0.000050521087737
 Iteration    10 Dimension   206 NMult   196 NNew     10
 CISAX will form    10 AO SS matrices at one time.
 NMat=    10 NSing=    10 JSym2X=-1.
 Root      1 has converged.
 Root      2 has converged.
 Root      3 has converged.
 Root      4 has converged.
 Root      5 has converged.
 Root      6 has converged.
 Root      7 has converged.
 Root      8 not converged, maximum delta is    0.000001171398600
 Root      9 has converged.
 Root     10 not converged, maximum delta is    0.000127849826719
 Excitation Energies [eV] at current iteration:
 Root      1 :     5.184653039372839   Change is   -0.000000000128560
 Root      2 :     5.217998259697502   Change is   -0.000000000000015
 Root      3 :     5.614526272166366   Change is   -0.000000000000483
 Root      4 :     5.633743299965963   Change is   -0.000000000252675
 Root      5 :     5.682934401192674   Change is   -0.000000000000174
 Root      6 :     6.298981828996949   Change is   -0.000000000000366
 Root      7 :     6.360311738593200   Change is   -0.000000000003128
 Root      8 :     6.402743822712551   Change is   -0.000000000484508
 Root      9 :     6.485283145561469   Change is   -0.000000000365208
 Root     10 :     6.629314281767256   Change is   -0.000003531952739
 Iteration    11 Dimension   210 NMult   206 NNew      4
 CISAX will form     4 AO SS matrices at one time.
 NMat=     4 NSing=     4 JSym2X=-1.
 Root      1 has converged.
 Root      2 has converged.
 Root      3 has converged.
 Root      4 has converged.
 Root      5 has converged.
 Root      6 has converged.
 Root      7 has converged.
 Root      8 has converged.
 Root      9 has converged.
 Root     10 not converged, maximum delta is    0.000032590808171
 Excitation Energies [eV] at current iteration:
 Root      1 :     5.184653039372680   Change is   -0.000000000000159
 Root      2 :     5.217998259697580   Change is    0.000000000000079
 Root      3 :     5.614526272166307   Change is   -0.000000000000059
 Root      4 :     5.633743299965642   Change is   -0.000000000000321
 Root      5 :     5.682934401192646   Change is   -0.000000000000029
 Root      6 :     6.298981828996936   Change is   -0.000000000000013
 Root      7 :     6.360311738593174   Change is   -0.000000000000026
 Root      8 :     6.402743822688707   Change is   -0.000000000023843
 Root      9 :     6.485283145559442   Change is   -0.000000000002028
 Root     10 :     6.629314039516832   Change is   -0.000000242250423
 Iteration    12 Dimension   212 NMult   210 NNew      2
 CISAX will form     2 AO SS matrices at one time.
 NMat=     2 NSing=     2 JSym2X=-1.
 Root      1 has converged.
 Root      2 has converged.
 Root      3 has converged.
 Root      4 has converged.
 Root      5 has converged.
 Root      6 has converged.
 Root      7 has converged.
 Root      8 has converged.
 Root      9 has converged.
 Root     10 not converged, maximum delta is    0.000009612318155
 Excitation Energies [eV] at current iteration:
 Root      1 :     5.184653039372490   Change is   -0.000000000000190
 Root      2 :     5.217998259697548   Change is   -0.000000000000032
 Root      3 :     5.614526272166293   Change is   -0.000000000000014
 Root      4 :     5.633743299965642   Change is    0.000000000000000
 Root      5 :     5.682934401192689   Change is    0.000000000000044
 Root      6 :     6.298981828996975   Change is    0.000000000000039
 Root      7 :     6.360311738593213   Change is    0.000000000000039
 Root      8 :     6.402743822688746   Change is    0.000000000000039
 Root      9 :     6.485283145559530   Change is    0.000000000000088
 Root     10 :     6.629314023043569   Change is   -0.000000016473264
 Iteration    13 Dimension   214 NMult   212 NNew      2
 CISAX will form     2 AO SS matrices at one time.
 NMat=     2 NSing=     2 JSym2X=-1.
 Root      1 has converged.
 Root      2 has converged.
 Root      3 has converged.
 Root      4 has converged.
 Root      5 has converged.
 Root      6 has converged.
 Root      7 has converged.
 Root      8 has converged.
 Root      9 has converged.
 Root     10 not converged, maximum delta is    0.000002416800381
 Excitation Energies [eV] at current iteration:
 Root      1 :     5.184653039372347   Change is   -0.000000000000143
 Root      2 :     5.217998259697580   Change is    0.000000000000032
 Root      3 :     5.614526272166336   Change is    0.000000000000044
 Root      4 :     5.633743299965205   Change is   -0.000000000000438
 Root      5 :     5.682934401192703   Change is    0.000000000000014
 Root      6 :     6.298981828996923   Change is   -0.000000000000052
 Root      7 :     6.360311738593200   Change is   -0.000000000000013
 Root      8 :     6.402743822688669   Change is   -0.000000000000077
 Root      9 :     6.485283145559479   Change is   -0.000000000000051
 Root     10 :     6.629314021974277   Change is   -0.000000001069292
 Iteration    14 Dimension   216 NMult   214 NNew      2
 CISAX will form     2 AO SS matrices at one time.
 NMat=     2 NSing=     2 JSym2X=-1.
 Root      1 has converged.
 Root      2 has converged.
 Root      3 has converged.
 Root      4 has converged.
 Root      5 has converged.
 Root      6 has converged.
 Root      7 has converged.
 Root      8 has converged.
 Root      9 has converged.
 Root     10 has converged.
 Excitation Energies [eV] at current iteration:
 Root      1 :     5.184653039372506   Change is    0.000000000000159
 Root      2 :     5.217998259697596   Change is    0.000000000000016
 Root      3 :     5.614526272166307   Change is   -0.000000000000029
 Root      4 :     5.633743299965146   Change is   -0.000000000000058
 Root      5 :     5.682934401192703   Change is    0.000000000000000
 Root      6 :     6.298981828996962   Change is    0.000000000000039
 Root      7 :     6.360311738593213   Change is    0.000000000000013
 Root      8 :     6.402743822688733   Change is    0.000000000000064
 Root      9 :     6.485283145559428   Change is   -0.000000000000051
 Root     10 :     6.629314021898670   Change is   -0.000000000075606
 Convergence achieved on expansion vectors.
 ***********************************************************************
 Excited states from <AA,BB:AA,BB> singles matrix:
 ***********************************************************************
 
 1PDM for each excited state written to RWF  633
 Ground to excited state transition densities written to RWF  633
 Ground to excited state transition electric dipole moments (Au):
       state          X           Y           Z        Dip. S.      Osc.
         1         0.2101     -1.1471      0.0000      1.3600      0.1728
         2         0.0000     -0.0000     -0.1449      0.0210      0.0027
         3         0.0000      0.0000     -0.0383      0.0015      0.0002
         4         1.3519      0.7784      0.0000      2.4334      0.3359
         5         0.0000      0.0000      0.1793      0.0321      0.0045
         6        -0.0000     -0.0000      0.0707      0.0050      0.0008
         7         0.0000      0.0000     -0.0974      0.0095      0.0015
         8         0.0000     -0.0000     -0.1328      0.0176      0.0028
         9         0.0000     -0.0000     -0.0468      0.0022      0.0003
        10        -0.2414      0.1472      0.0000      0.0799      0.0130
 Ground to excited state transition velocity dipole moments (Au):
       state          X           Y           Z        Dip. S.      Osc.
         1        -0.0417      0.2227     -0.0000      0.0513      0.1796
         2        -0.0000      0.0000      0.0288      0.0008      0.0029
         3        -0.0000     -0.0000      0.0168      0.0003      0.0009
         4        -0.2766     -0.1526     -0.0000      0.0998      0.3213
         5        -0.0000     -0.0000     -0.0388      0.0015      0.0048
         6         0.0000      0.0000     -0.0130      0.0002      0.0005
         7        -0.0000     -0.0000      0.0206      0.0004      0.0012
         8        -0.0000      0.0000      0.0418      0.0017      0.0049
         9        -0.0000      0.0000      0.0149      0.0002      0.0006
        10         0.0542     -0.0334     -0.0000      0.0041      0.0111
 Ground to excited state transition magnetic dipole moments (Au):
       state          X           Y           Z
         1         0.0000      0.0000      1.0944
         2        -0.2716      0.1710      0.0000
         3         0.8203     -0.3591      0.0000
         4         0.0000      0.0000      0.1586
         5         0.0198      0.1182      0.0000
         6         0.0064     -0.1233     -0.0000
         7         0.1109      0.0928      0.0000
         8         1.0554      0.3426     -0.0000
         9        -0.1211      0.0432     -0.0000
        10        -0.0000      0.0000      0.3955
 Ground to excited state transition velocity quadrupole moments (Au):
       state          XX          YY          ZZ          XY          XZ          YZ
         1         0.3830     -0.5188     -0.0121     -0.3126     -0.0000      0.0000
         2         0.0000     -0.0000     -0.0000     -0.0000     -0.1478     -0.2625
         3         0.0000     -0.0000      0.0000     -0.0000      0.0200      0.0809
         4        -0.0669      0.0654     -0.0591     -0.6126     -0.0000      0.0000
         5        -0.0000      0.0000     -0.0000     -0.0000     -0.1082      0.0345
         6         0.0000     -0.0000      0.0000      0.0000      0.0556      0.1059
         7        -0.0000     -0.0000     -0.0000     -0.0000      0.0908      0.1459
         8        -0.0000     -0.0000     -0.0000     -0.0000      0.0391      0.3547
         9         0.0000      0.0000      0.0000      0.0000      0.0393     -0.0504
        10        -0.5389     -0.7279     -0.0479     -0.6870     -0.0000     -0.0000
 <0|del|b> * <b|rxdel|0> + <0|del|b> * <b|delr+rdel|0>
 Rotatory Strengths (R) in cgs (10**-40 erg-esu-cm/Gauss)
       state          XX          YY          ZZ    R(velocity)    E-M Angle
         1         0.0000     -0.0000     -0.0000     -0.0000       90.00
         2         0.0000      0.0000      0.0000      0.0000       90.00
         3         0.0000     -0.0000     -0.0000     -0.0000       90.00
         4         0.0000     -0.0000      0.0000     -0.0000       90.00
         5        -0.0000     -0.0000      0.0000     -0.0000       90.00
         6        -0.0000      0.0000     -0.0000     -0.0000       90.00
         7        -0.0000     -0.0000     -0.0000     -0.0000       90.00
         8         0.0000     -0.0000      0.0000      0.0000       90.00
         9         0.0000     -0.0000      0.0000     -0.0000       90.00
        10         0.0000     -0.0000      0.0000     -0.0000       90.00
 1/2[<0|r|b>*<b|rxdel|0> + (<0|rxdel|b>*<b|r|0>)*]
 Rotatory Strengths (R) in cgs (10**-40 erg-esu-cm/Gauss)
       state          XX          YY          ZZ     R(length)
         1        -0.0000      0.0000     -0.0000      0.0000
         2         0.0000      0.0000      0.0000      0.0000
         3        -0.0000      0.0000      0.0000     -0.0000
         4        -0.0000     -0.0000     -0.0000     -0.0000
         5        -0.0000     -0.0000     -0.0000     -0.0000
         6         0.0000     -0.0000      0.0000     -0.0000
         7        -0.0000     -0.0000      0.0000     -0.0000
         8        -0.0000      0.0000     -0.0000     -0.0000
         9         0.0000      0.0000     -0.0000     -0.0000
        10        -0.0000     -0.0000     -0.0000     -0.0000
  1/2[<0|del|b>*<b|r|0> + (<0|r|b>*<b|del|0>)*] (Au)
       state          X           Y           Z        Dip. S.   Osc.(frdel)
         1        -0.0088     -0.2555     -0.0000      0.2642      0.1761
         2        -0.0000     -0.0000     -0.0042      0.0042      0.0028
         3        -0.0000     -0.0000     -0.0006      0.0006      0.0004
         4        -0.3739     -0.1188     -0.0000      0.4927      0.3284
         5        -0.0000     -0.0000     -0.0069      0.0069      0.0046
         6        -0.0000     -0.0000     -0.0009      0.0009      0.0006
         7        -0.0000     -0.0000     -0.0020      0.0020      0.0013
         8        -0.0000     -0.0000     -0.0055      0.0055      0.0037
         9        -0.0000     -0.0000     -0.0007      0.0007      0.0005
        10        -0.0131     -0.0049     -0.0000      0.0180      0.0120

 Excitation energies and oscillator strengths:
 
 Excited State   1:      Singlet-A'     5.1847 eV  239.14 nm  f=0.1728  <S**2>=0.000
      36 -> 43        -0.10755
      39 -> 42         0.67929
 This state for optimization and/or second-order correction.
 Total Energy, E(TD-HF/TD-DFT) =  -542.283867793    
 Copying the excited state density for this state as the 1-particle RhoCI density.
 
 Excited State   2:      Singlet-A"     5.2180 eV  237.61 nm  f=0.0027  <S**2>=0.000
      39 -> 40         0.66872
      39 -> 41         0.11857
      39 -> 45         0.10387
 
 Excited State   3:      Singlet-A"     5.6145 eV  220.83 nm  f=0.0002  <S**2>=0.000
      37 -> 42        -0.24925
      37 -> 43        -0.18401
      38 -> 42         0.47874
      38 -> 43         0.34358
      38 -> 48        -0.13240
 
 Excited State   4:      Singlet-A'     5.6337 eV  220.07 nm  f=0.3359  <S**2>=0.000
      36 -> 42         0.10141
      39 -> 43         0.68343
 
 Excited State   5:      Singlet-A"     5.6829 eV  218.17 nm  f=0.0045  <S**2>=0.000
      39 -> 40        -0.13099
      39 -> 41         0.66504
      39 -> 45         0.10621
 
 Excited State   6:      Singlet-A"     6.2990 eV  196.83 nm  f=0.0008  <S**2>=0.000
      35 -> 40         0.14305
      39 -> 44         0.56867
      39 -> 45         0.27301
      39 -> 46        -0.19460
 
 Excited State   7:      Singlet-A"     6.3603 eV  194.93 nm  f=0.0015  <S**2>=0.000
      39 -> 41        -0.12447
      39 -> 44        -0.36659
      39 -> 45         0.44522
      39 -> 46        -0.33256
 
 Excited State   8:      Singlet-A"     6.4027 eV  193.64 nm  f=0.0028  <S**2>=0.000
      33 -> 43        -0.10312
      37 -> 42         0.29935
      37 -> 43         0.45712
      37 -> 48         0.10404
      37 -> 52         0.11624
      38 -> 42         0.12426
      38 -> 43         0.30567
      38 -> 48         0.11553
 
 Excited State   9:      Singlet-A"     6.4853 eV  191.18 nm  f=0.0003  <S**2>=0.000
      33 -> 42         0.17877
      33 -> 43        -0.11578
      37 -> 42         0.46326
      37 -> 43        -0.19041
      38 -> 42         0.34801
      38 -> 43        -0.23644
 
 Excited State  10:      Singlet-A'     6.6293 eV  187.02 nm  f=0.0130  <S**2>=0.000
      39 -> 48         0.64816
      39 -> 52         0.18484
 SavETr:  write IOETrn=   770 NScale= 10 NData=  16 NLR=1 NState=   10 LETran=     190.
 The selected state is a singlet.
 CISGrd: IGrad=3 NXY=2 DFT=T
 CISAX will form     1 AO SS matrices at one time.
 NMat=     1 NSing=     1 JSym2X=-1.
 Leave Link  914 at Tue Nov 22 13:50:33 2022, MaxMem=   671088640 cpu:            3030.0 elap:              60.7
 (Enter /shared/gaussian/g16.b01/AVX2/g16/l1002.exe)
 Minotr:  Closed shell wavefunction.
          Computing CIS/TDA/TD derivatives.
          Using Z-Vector for PSCF gradient.
          Skipping F1 and S1 gradient terms here.
          IDoAtm=1111111111111111
          Frozen-core window.
          Direct CPHF calculation.
          Differentiating once with respect to electric field.
                with respect to dipole field.
          Differentiating once with respect to nuclear coordinates.
          Requested convergence is 1.0D-10 RMS, and 1.0D-09 maximum.
          NewPWx=F KeepS1=T KeepF1=T KeepIn=T MapXYZ=F SortEE=F KeepMc=T.
 Two-electron integral symmetry used by symmetrizing perturbed Fock matrices.
          MDV=     671088640 using IRadAn=       5.
          Solving linear equations separately, MaxMat=     350.
          There are     1 degrees of freedom in the 1st order CPHF.  IDoFFX=0 NUNeed=     1.
 FoFJK:  IHMeth= 1 ICntrl=       0 DoSepK=T KAlg= 0 I1Cent=           0 FoldK=F
 IRaf=         1 NMat=       1 IRICut=       1 DoRegI=T DoRafI=F ISym2E=-1 IDoP0=0 IntGTp=1.
 FoFCou: FMM=F IPFlag=           0 FMFlag=      100000 FMFlg1=           0
         NFxFlg=           0 DoJE=T BraDBF=F KetDBF=F FulRan=T
         wScrn=  0.000000 ICntrl=       500 IOpCl=  0 I1Cent=           0 NGrid=           0
         NMat0=    1 NMatS0=      1 NMatT0=    0 NMatD0=    1 NMtDS0=    0 NMtDT0=    0
 Petite list used in FoFCou.
 LinEq1:  Iter=  0 NonCon=     1 RMS=5.63D-03 Max=2.55D-01 NDo=     1
 AX will form     1 AO Fock derivatives at one time.
 LinEq1:  Iter=  1 NonCon=     1 RMS=2.54D-03 Max=1.14D-01 NDo=     1
 LinEq1:  Iter=  2 NonCon=     1 RMS=1.69D-03 Max=6.19D-02 NDo=     1
 LinEq1:  Iter=  3 NonCon=     1 RMS=6.75D-04 Max=1.36D-02 NDo=     1
 LinEq1:  Iter=  4 NonCon=     1 RMS=4.78D-04 Max=1.79D-02 NDo=     1
 LinEq1:  Iter=  5 NonCon=     1 RMS=2.21D-04 Max=6.39D-03 NDo=     1
 LinEq1:  Iter=  6 NonCon=     1 RMS=1.22D-04 Max=3.65D-03 NDo=     1
 LinEq1:  Iter=  7 NonCon=     1 RMS=4.37D-05 Max=1.08D-03 NDo=     1
 LinEq1:  Iter=  8 NonCon=     1 RMS=1.99D-05 Max=6.86D-04 NDo=     1
 LinEq1:  Iter=  9 NonCon=     1 RMS=1.28D-05 Max=4.23D-04 NDo=     1
 LinEq1:  Iter= 10 NonCon=     1 RMS=5.79D-06 Max=1.91D-04 NDo=     1
 LinEq1:  Iter= 11 NonCon=     1 RMS=3.54D-06 Max=9.13D-05 NDo=     1
 LinEq1:  Iter= 12 NonCon=     1 RMS=1.27D-06 Max=3.58D-05 NDo=     1
 LinEq1:  Iter= 13 NonCon=     1 RMS=5.96D-07 Max=1.62D-05 NDo=     1
 LinEq1:  Iter= 14 NonCon=     1 RMS=2.21D-07 Max=3.68D-06 NDo=     1
 LinEq1:  Iter= 15 NonCon=     1 RMS=9.69D-08 Max=1.64D-06 NDo=     1
 LinEq1:  Iter= 16 NonCon=     1 RMS=2.61D-08 Max=4.67D-07 NDo=     1
 LinEq1:  Iter= 17 NonCon=     1 RMS=1.27D-08 Max=3.30D-07 NDo=     1
 LinEq1:  Iter= 18 NonCon=     1 RMS=5.42D-09 Max=1.41D-07 NDo=     1
 LinEq1:  Iter= 19 NonCon=     1 RMS=1.16D-09 Max=3.02D-08 NDo=     1
 LinEq1:  Iter= 20 NonCon=     1 RMS=3.74D-10 Max=7.79D-09 NDo=     1
 LinEq1:  Iter= 21 NonCon=     1 RMS=2.02D-10 Max=5.49D-09 NDo=     1
 LinEq1:  Iter= 22 NonCon=     0 RMS=5.70D-11 Max=8.20D-10 NDo=     1
 Linear equations converged to 1.000D-10 1.000D-09 after    22 iterations.
          There are     1 degrees of freedom in the 1st order CPHF.  IDoFFX=0 NUNeed=     1.
 End of Minotr F.D. properties file   721 does not exist.
 End of Minotr F.D. properties file   722 does not exist.
 End of Minotr F.D. properties file   788 does not exist.
 Leave Link 1002 at Tue Nov 22 13:50:59 2022, MaxMem=   671088640 cpu:            1299.1 elap:              26.2
 (Enter /shared/gaussian/g16.b01/AVX2/g16/l1101.exe)
 Using compressed Sx but separate Hx and Fx, NAtomX=    16.
 Will process     17 centers per pass.
 Leave Link 1101 at Tue Nov 22 13:51:00 2022, MaxMem=   671088640 cpu:              11.7 elap:               0.3
 (Enter /shared/gaussian/g16.b01/AVX2/g16/l1102.exe)
 Use density number 6.
 Symmetrizing basis deriv contribution to polar:
 IMax=3 JMax=2 DiffMx= 0.00D+00
 Leave Link 1102 at Tue Nov 22 13:51:00 2022, MaxMem=   671088640 cpu:               1.0 elap:               0.0
 (Enter /shared/gaussian/g16.b01/AVX2/g16/l1110.exe)
 Forming Gx(P) for the SCF density, NAtomX=    16.
 Integral derivatives from FoFJK, PRISM(SPDF).
 Do as many integral derivatives as possible in FoFJK.
 G2DrvN: MDV=     671087256.
 G2DrvN: will do    17 centers at a time, making    1 passes.
 Calling FoFCou, ICntrl=  3107 FMM=F I1Cent=   0 AccDes= 0.00D+00.
 FoFJK:  IHMeth= 1 ICntrl=    3107 DoSepK=T KAlg= 0 I1Cent=           0 FoldK=F
 IRaf=         1 NMat=       1 IRICut=       1 DoRegI=T DoRafI=F ISym2E= 1 IDoP0=0 IntGTp=1.
 FoFCou: FMM=F IPFlag=           0 FMFlag=      100000 FMFlg1=           0
         NFxFlg=           0 DoJE=F BraDBF=F KetDBF=F FulRan=T
         wScrn=  0.000000 ICntrl=      3507 IOpCl=  0 I1Cent=           0 NGrid=           0
         NMat0=    1 NMatS0=      1 NMatT0=    0 NMatD0=    1 NMtDS0=    0 NMtDT0=    0
 Petite list used in FoFCou.
 Forming Gx(P) for generalized density number  6 NAtomX=    16.
 Integral derivatives from FoFJK, PRISM(SPDF).
 Do as many integral derivatives as possible in FoFJK.
 G2DrvN: MDV=     671087256.
 G2DrvN: will do    17 centers at a time, making    1 passes.
 Calling FoFCou, ICntrl=  3107 FMM=F I1Cent=   0 AccDes= 0.00D+00.
 Forming Gx(T) for CIS/TDA/TD state  1 NAtomX=    16.
 Integral derivatives from FoFJK, PRISM(SPDF).
 Do as many integral derivatives as possible in FoFJK.
 G2DrvN: MDV=     671087256.
 G2DrvN: will do    17 centers at a time, making    1 passes.
 Calling FoFCou, ICntrl=  3107 FMM=F I1Cent=   0 AccDes= 0.00D+00.
 End of G2Drv F.D. properties file   721 does not exist.
 End of G2Drv F.D. properties file   722 does not exist.
 End of G2Drv F.D. properties file   788 does not exist.
 Leave Link 1110 at Tue Nov 22 13:51:17 2022, MaxMem=   671088640 cpu:             842.3 elap:              16.9
 (Enter /shared/gaussian/g16.b01/AVX2/g16/l1002.exe)
 Minotr:  Closed shell wavefunction.
          IDoAtm=1111111111111111
          Frozen-core window.
          Direct CPHF calculation.
          Differentiating once with respect to electric field.
                with respect to dipole field.
          Differentiating once with respect to nuclear coordinates.
          Requested convergence is 1.0D-08 RMS, and 1.0D-07 maximum.
          Secondary convergence is 1.0D-12 RMS, and 1.0D-12 maximum.
          NewPWx=T KeepS1=T KeepF1=T KeepIn=T MapXYZ=F SortEE=F KeepMc=T.
         4930 words used for storage of precomputed grid.
 Two-electron integrals replicated using symmetry.
          MDV=     671088640 using IRadAn=       1.
          Solving linear equations simultaneously, MaxMat=     350.
 FoF2E skips out because all densities are zero.
 CalDSu exits because no D1Ps are significant.
 FoFJK:  IHMeth= 1 ICntrl=       0 DoSepK=T KAlg= 0 I1Cent=           0 FoldK=F
 IRaf=         1 NMat=      48 IRICut=       1 DoRegI=T DoRafI=F ISym2E= 2 IDoP0=3 IntGTp=3.
 FoFCou: FMM=F IPFlag=           0 FMFlag=      100000 FMFlg1=           0
         NFxFlg=           0 DoJE=F BraDBF=F KetDBF=F FulRan=T
         wScrn=  0.000000 ICntrl=       500 IOpCl=  0 I1Cent=           0 NGrid=           0
         NMat0=   48 NMatS0=     48 NMatT0=    0 NMatD0=   48 NMtDS0=    0 NMtDT0=    0
 Integrals replicated using symmetry in FoFCou.
          There are    51 degrees of freedom in the 1st order CPHF.  IDoFFX=6 NUNeed=    51.
     48 vectors produced by pass  0 Test12= 1.78D-14 1.96D-09 XBig12= 7.74D+01 5.13D+00.
 AX will form    48 AO Fock derivatives at one time.
     48 vectors produced by pass  1 Test12= 1.78D-14 1.96D-09 XBig12= 1.42D+01 5.37D-01.
     48 vectors produced by pass  2 Test12= 1.78D-14 1.96D-09 XBig12= 2.64D-01 6.56D-02.
     48 vectors produced by pass  3 Test12= 1.78D-14 1.96D-09 XBig12= 3.37D-03 1.02D-02.
     48 vectors produced by pass  4 Test12= 1.78D-14 1.96D-09 XBig12= 2.34D-05 8.04D-04.
     48 vectors produced by pass  5 Test12= 1.78D-14 1.96D-09 XBig12= 1.35D-07 4.11D-05.
     45 vectors produced by pass  6 Test12= 1.78D-14 1.96D-09 XBig12= 5.99D-10 2.73D-06.
     22 vectors produced by pass  7 Test12= 1.78D-14 1.96D-09 XBig12= 3.11D-12 2.70D-07.
      3 vectors produced by pass  8 Test12= 1.78D-14 1.96D-09 XBig12= 1.57D-14 2.11D-08.
 InvSVY:  IOpt=1 It=  1 EMax= 5.33D-15
 Solved reduced A of dimension   358 with    51 vectors.
 FullF1:  Do perturbations      1 to      51.
 Isotropic polarizability for W=    0.000000       95.18 Bohr**3.
 Saving first derivative matrices.
 End of Minotr F.D. properties file   721 does not exist.
 End of Minotr F.D. properties file   722 does not exist.
 End of Minotr F.D. properties file   788 does not exist.
 Leave Link 1002 at Tue Nov 22 13:51:40 2022, MaxMem=   671088640 cpu:            1147.9 elap:              23.0
 (Enter /shared/gaussian/g16.b01/AVX2/g16/l1014.exe)
 This link is doing    51 degrees of freedom
 Form MO integral derivatives with frozen-active canonical formalism.
 CISSec: MDV=     671081142
 Doing TD-HF/TD-DFT second derivatives, IDoFFX=6 IOneXC=4 IRadAn=         1.
 Frozen orbitals handled with amplitudes over full window.
 Frozen-core window:  NFC=  11 NFV=   0.
 Symmetry is being used.
 Would need an additional          1433800000 words for in-memory AO integral storage.
 The selected state is a singlet.
 CISGrX: IGrad=3 NXY=2 DFT=T
 CISAX will form    51 AO SS matrices at one time.
 NMat=    51 NSing=    51 JSym2X= 2.
 FoFJK:  IHMeth= 1 ICntrl=       0 DoSepK=T KAlg= 0 I1Cent=           0 FoldK=F
 IRaf=         1 NMat=     102 IRICut=       1 DoRegI=T DoRafI=F ISym2E= 2 IDoP0=3 IntGTp=3.
 FoFCou: FMM=F IPFlag=           0 FMFlag=      100000 FMFlg1=           0
         NFxFlg=           0 DoJE=F BraDBF=F KetDBF=F FulRan=T
         wScrn=  0.000000 ICntrl=       500 IOpCl=  0 I1Cent=           0 NGrid=           0
         NMat0=   51 NMatS0=     51 NMatT0=    0 NMatD0=   51 NMtDS0=    0 NMtDT0=    0
 Integrals replicated using symmetry in FoFCou.
     48 vectors produced by pass  0 Test12= 2.56D-14 1.96D-09 XBig12= 4.23D+01 3.76D+00.
 AX will form    48 AO Fock derivatives at one time.
     48 vectors produced by pass  1 Test12= 2.56D-14 1.96D-09 XBig12= 3.35D+00 9.19D-01.
     48 vectors produced by pass  2 Test12= 2.56D-14 1.96D-09 XBig12= 3.29D-01 1.51D-01.
     48 vectors produced by pass  3 Test12= 2.56D-14 1.96D-09 XBig12= 6.77D-03 1.93D-02.
     48 vectors produced by pass  4 Test12= 2.56D-14 1.96D-09 XBig12= 1.26D-04 1.73D-03.
     48 vectors produced by pass  5 Test12= 2.56D-14 1.96D-09 XBig12= 1.57D-06 2.09D-04.
     48 vectors produced by pass  6 Test12= 2.56D-14 1.96D-09 XBig12= 1.56D-08 1.80D-05.
     39 vectors produced by pass  7 Test12= 2.56D-14 1.96D-09 XBig12= 1.28D-10 1.91D-06.
     22 vectors produced by pass  8 Test12= 2.56D-14 1.96D-09 XBig12= 1.14D-12 1.65D-07.
      8 vectors produced by pass  9 Test12= 2.56D-14 1.96D-09 XBig12= 1.34D-14 2.00D-08.
 InvSVY:  IOpt=1 It=  1 EMax= 1.46D-14
 Solved reduced A of dimension   405 with    51 vectors.
 Tx.T =  1.24D-05 for pert.     1
 Tx.T =  8.69D-07 for pert.    35
 Tx.T =  7.37D-07 for pert.    16
 Tx.T = -7.07D-07 for pert.    23
 Tx.T = -5.70D-07 for pert.    32
 Tx.T = -4.52D-07 for pert.    19
 Tx.T = -3.60D-07 for pert.    34
 Tx.T =  3.04D-07 for pert.     7
 Tx.T =  2.92D-07 for pert.     5
 Tx.T = -2.68D-07 for pert.     8
 SavDET:  read IOETrn=   770 NScale= 10 NData=  16 NLR=1 NState=   10 NDeriv=    0 LETran=     190.
 SavDET: write IOETrn=   770 NScale= 10 NData=  16 NLR=1 NState=   10 NDeriv=   51 LETran=    1006.
 TDDxLx will form    51 C1x/S1x matrices at one time.
 Interchange theorem applied.
 Leave Link 1014 at Tue Nov 22 13:52:19 2022, MaxMem=   671088640 cpu:            1937.0 elap:              38.8
 (Enter /shared/gaussian/g16.b01/AVX2/g16/l601.exe)
 Copying SCF densities to generalized density rwf, IOpCl= 0 IROHF=0.

 **********************************************************************

            Population analysis using the SCF Density.

 **********************************************************************

 Orbital symmetries:
       Occupied  (A') (A') (A') (A') (A') (A') (A') (A') (A') (A')
                 (A') (A') (A') (A') (A') (A') (A') (A') (A') (A')
                 (A') (A') (A') (A') (A') (A') (A") (A') (A") (A')
                 (A') (A") (A') (A") (A") (A") (A') (A') (A")
       Virtual   (A') (A') (A") (A") (A') (A') (A') (A") (A") (A')
                 (A') (A') (A") (A') (A") (A') (A') (A") (A') (A")
                 (A') (A') (A') (A') (A") (A') (A') (A") (A') (A')
                 (A") (A') (A') (A") (A') (A") (A') (A') (A') (A')
                 (A") (A') (A') (A') (A') (A') (A') (A') (A') (A")
                 (A') (A') (A') (A') (A') (A') (A') (A') (A') (A')
                 (A') (A') (A') (A') (A') (A") (A") (A") (A') (A")
                 (A') (A') (A') (A") (A') (A') (A') (A') (A') (A')
                 (A') (A') (A") (A') (A") (A') (A') (A") (A') (A')
                 (A") (A') (A') (A') (A") (A') (A') (A') (A') (A")
                 (A') (A') (A') (A") (A') (A") (A") (A") (A') (A")
                 (A') (A") (A') (A") (A') (A") (A') (A") (A') (A')
                 (A') (A') (A') (A') (A') (A") (A') (A") (A') (A")
                 (A') (A') (A') (A") (A') (A') (A') (A') (A") (A')
                 (A') (A') (A") (A') (A') (A') (A') (A") (A') (A')
                 (A") (A") (A') (A') (A") (A') (A") (A") (A') (A")
                 (A') (A') (A") (A') (A") (A') (A') (A") (A') (A')
                 (A') (A') (A") (A') (A") (A') (A') (A") (A") (A')
                 (A') (A") (A') (A") (A') (A') (A') (A') (A') (A')
                 (A') (A") (A') (A') (A') (A') (A') (A') (A') (A')
                 (A') (A") (A") (A') (A") (A") (A") (A') (A') (A')
                 (A') (A') (A') (A') (A') (A') (A") (A') (A') (A')
                 (A') (A') (A') (A') (A') (A') (A') (A') (A') (A')
                 (A') (A') (A')
 The electronic state is 1-A'.
 Alpha  occ. eigenvalues --  -19.16614 -14.45293 -14.45013 -14.43540 -14.38994
 Alpha  occ. eigenvalues --  -14.38052 -10.39319 -10.36314 -10.32779 -10.31376
 Alpha  occ. eigenvalues --  -10.26657  -1.14916  -1.12237  -1.10375  -1.00995
[...]
      1   0.000000D+00  0.000000D+00  0.000000D+00  0.000000D+00  0.000000D+00
      2   0.000000D+00  0.391150D-01  0.497946D-01  0.000000D+00 -0.965272D-02
      3   0.000000D+00 -0.235098D-01 -0.468497D-01  0.000000D+00  0.712637D-01
      4   0.191963D+01  0.000000D+00  0.000000D+00 -0.187182D-01  0.000000D+00
      5   0.000000D+00 -0.746799D-02 -0.980653D-02  0.000000D+00  0.186192D-02
      6   0.000000D+00  0.430431D-02  0.796434D-02  0.000000D+00 -0.118886D-01
      7  -0.369229D+00  0.000000D+00  0.000000D+00  0.400481D-02  0.000000D+00
      8   0.371971D+01  0.000000D+00  0.000000D+00  0.144787D-01  0.000000D+00
      9   0.259931D+01  0.000000D+00  0.000000D+00 -0.538294D-01  0.000000D+00
     10   0.000000D+00 -0.562127D-02  0.267533D-01  0.000000D+00 -0.547417D-01
     11   0.000000D+00 -0.137197D-01  0.144194D-01  0.000000D+00  0.621571D-02
     12   0.000000D+00  0.409059D-02  0.227694D-01  0.000000D+00  0.298027D-01
     13   0.000000D+00  0.433481D-02  0.421523D-02  0.000000D+00 -0.157235D-02
     14   0.000000D+00 -0.150444D-01 -0.452793D-01  0.000000D+00 -0.264998D-01
     15  -0.192832D+01  0.000000D+00  0.000000D+00  0.952388D-02  0.000000D+00
     16   0.328517D+01  0.000000D+00  0.000000D+00 -0.488238D-02  0.000000D+00
                41            42            43            44            45 
      1   0.000000D+00  0.000000D+00  0.000000D+00  0.000000D+00  0.000000D+00
      2   0.458393D-01  0.000000D+00 -0.346376D-01 -0.953248D-01  0.000000D+00
      3  -0.446153D-01  0.000000D+00 -0.158058D-01  0.674923D-01  0.000000D+00
      4   0.000000D+00  0.412461D+00  0.000000D+00  0.000000D+00  0.312123D+00
      5  -0.995603D-02  0.000000D+00  0.682671D-02  0.184429D-01  0.000000D+00
      6   0.834888D-02  0.000000D+00  0.249132D-02 -0.118558D-01  0.000000D+00
      7   0.000000D+00 -0.826689D-01  0.000000D+00  0.000000D+00 -0.616623D-01
      8   0.000000D+00  0.765769D+00  0.000000D+00  0.000000D+00  0.593311D+00
      9   0.000000D+00  0.439965D+00  0.000000D+00  0.000000D+00  0.366643D+00
     10   0.824968D-02  0.000000D+00 -0.469180D-01 -0.130206D-02  0.000000D+00
     11  -0.920896D-02  0.000000D+00 -0.167867D-01  0.100983D-01  0.000000D+00
     12  -0.273551D-01  0.000000D+00 -0.683605D-01  0.559976D-01  0.000000D+00
     13   0.870579D-02  0.000000D+00 -0.826714D-02  0.147644D-02  0.000000D+00
     14  -0.462323D-02  0.000000D+00  0.683424D-01  0.488972D-02  0.000000D+00
     15   0.000000D+00 -0.404168D+00  0.000000D+00  0.000000D+00 -0.304724D+00
     16   0.000000D+00  0.760239D+00  0.000000D+00  0.000000D+00  0.552410D+00
                46            47            48            49            50 
      1   0.000000D+00  0.000000D+00  0.000000D+00  0.000000D+00  0.000000D+00
      2   0.841445D-01 -0.140461D-01  0.000000D+00  0.696284D-01  0.885257D-02
      3  -0.124164D-01  0.474662D-01  0.000000D+00 -0.686244D-01 -0.489250D-01
      4   0.000000D+00  0.000000D+00  0.190819D+00  0.000000D+00  0.000000D+00
      5  -0.161508D-01  0.303053D-02  0.000000D+00 -0.129620D-01 -0.193346D-02
      6   0.203965D-02 -0.744651D-02  0.000000D+00  0.118490D-01  0.796594D-02
      7   0.000000D+00  0.000000D+00 -0.384484D-01  0.000000D+00  0.000000D+00
      8   0.000000D+00  0.000000D+00  0.275770D+00  0.000000D+00  0.000000D+00
      9   0.000000D+00  0.000000D+00  0.195119D+00  0.000000D+00  0.000000D+00
     10  -0.137775D-01 -0.116876D-01  0.000000D+00 -0.983939D-03  0.231812D-02
     11  -0.675364D-02 -0.243429D-02  0.000000D+00 -0.168334D-01  0.137867D-02
     12   0.465770D-01  0.778101D-01  0.000000D+00  0.187031D-01  0.249312D-01
     13   0.469894D-02  0.472169D-02  0.000000D+00  0.616163D-02  0.238849D-03
     14   0.114135D-02  0.201838D-02  0.000000D+00 -0.553901D-01 -0.327397D-01
     15   0.000000D+00  0.000000D+00 -0.183840D+00  0.000000D+00  0.000000D+00
     16   0.000000D+00  0.000000D+00  0.329075D+00  0.000000D+00  0.000000D+00
                51 
      1   0.000000D+00
      2   0.000000D+00
      3   0.000000D+00
      4   0.293008D-01
      5   0.000000D+00
      6   0.000000D+00
      7  -0.591781D-02
      8  -0.402061D-01
      9  -0.360768D-01
     10   0.000000D+00
     11   0.000000D+00
     12   0.000000D+00
     13   0.000000D+00
     14   0.000000D+00
     15   0.246361D-01
     16  -0.109689D-01

 ----------------------------------------------------------------------

 Electric dipole moment (input orientation):
 (Debye = 10**-18 statcoulomb cm , SI units = C m)
                  (au)            (Debye)         (10**-30 SI)
   Tot        0.267299D+01      0.679407D+01      0.226626D+02
   x         -0.162861D+01     -0.413951D+01     -0.138079D+02
   y         -0.211956D+01     -0.538738D+01     -0.179704D+02
   z          0.000000D+00      0.000000D+00      0.000000D+00

 Dipole polarizability, Alpha (input orientation).
 (esu units = cm**3 , SI units = C**2 m**2 J**-1)
 Alpha(0;0):
               (au)            (10**-24 esu)      (10**-40 SI)
   iso        0.177035D+03      0.262339D+02      0.291892D+02
   aniso      0.593359D+02      0.879267D+01      0.978316D+01
   xx         0.137494D+03      0.203744D+02      0.226696D+02
   yx         0.608772D+00      0.902107D-01      0.100373D+00
   yy         0.196063D+03      0.290535D+02      0.323264D+02
   zx         0.000000D+00      0.000000D+00      0.000000D+00
   zy         0.000000D+00      0.000000D+00      0.000000D+00
   zz         0.197549D+03      0.292738D+02      0.325714D+02

 ----------------------------------------------------------------------

 Dipole orientation:
     7         -3.23785105          2.48787179          1.39926876
     6         -4.05333108          3.11446324         -0.99641157
     7         -2.70048560          2.07497560         -2.75450903
     6         -0.90168628          0.69282985         -1.47991495
     6          1.11673526         -0.85806731         -2.41183232
     8          1.76928556         -1.35946823         -4.54115006
     7          2.48620922         -1.91033179         -0.33655564
     6          1.99689435         -1.53435629          2.17118176
     7          3.53314635         -2.71476822          3.85254834
     7          0.15778036         -0.12123390          2.99477241
     6         -1.20928529          0.92918010          1.10488039
     1         -5.65280785          4.34345527         -1.29688961
     1          3.93863127         -3.02633120         -0.87872800
     1          4.97687931         -3.82409118          3.32447236
     1          3.18588048         -2.44793910          5.70035166
     1         -3.97041728          3.05075465          3.06389342

 Electric dipole moment (dipole orientation):
 (Debye = 10**-18 statcoulomb cm , SI units = C m)
                  (au)            (Debye)         (10**-30 SI)
   Tot        0.267299D+01      0.679407D+01      0.226626D+02
   x          0.000000D+00      0.000000D+00      0.000000D+00
   y          0.000000D+00      0.000000D+00      0.000000D+00
   z          0.267299D+01      0.679407D+01      0.226626D+02

 Dipole polarizability, Alpha (dipole orientation).
 (esu units = cm**3 , SI units = C**2 m**2 J**-1)
 Alpha(0;0):
               (au)            (10**-24 esu)      (10**-40 SI)
   iso        0.177035D+03      0.262339D+02      0.291892D+02
   aniso      0.593359D+02      0.879267D+01      0.978316D+01
   xx         0.173089D+03      0.256491D+02      0.285385D+02
   yx         0.187945D+02      0.278506D+01      0.309879D+01
   yy         0.183108D+03      0.271338D+02      0.301904D+02
   zx         0.223137D+02      0.330655D+01      0.367904D+01
   zy        -0.171452D+02     -0.254066D+01     -0.282687D+01
   zz         0.174909D+03      0.259188D+02      0.288386D+02

 ----------------------------------------------------------------------
 1\1\GINC-BAKU1\Freq\RCAM-B3LYP TD-FC\6-311+G(d,p)\C5H5N5O1\ROOT\22-Nov
 -2022\0\\#p freq td=(nstates=10) cam-b3lyp/6-311+G(d,p) symm=loose\\Gu
 anine TDDFT\\0,1\N,-2.164547,0.729374,0.\C,-1.823669,2.06621,0.\N,-0.5
 40931,2.253857,0.\C,0.,0.987621,0.\C,1.36857,0.557966,0.\O,2.400416,1.
 186125,0.\N,1.424157,-0.869681,0.\C,0.356682,-1.723002,0.\N,0.627528,-
 3.053172,0.\N,-0.882076,-1.320799,0.\C,-0.99616,0.028079,0.\H,-2.57319
 6,2.842649,0.\H,2.367552,-1.23274,0.\H,1.56178,-3.418613,0.\H,-0.15200
 3,-3.687334,0.\H,-3.08891,0.328741,0.\\Version=ES64L-G16RevB.01\State=
 1-A'\HF=-542.4744003\RMSD=5.883e-09\RMSF=2.167e-02\ZeroPoint=0.1083141
 \Thermal=0.1161038\Dipole=-1.6286086,-2.1195595,0.\DipoleDeriv=-1.2026
 662,-0.210233,0.,-0.4351979,-0.9590543,0.,0.,0.,1.3338008,1.2689058,0.
 7804709,0.,0.9367684,1.2028525,0.,0.,0.,0.321398,-1.099729,0.0024296,0
 .,0.039634,-0.7224611,0.,0.,0.,-0.5954789,-0.0264739,-0.4830198,0.,0.4
 285017,1.3086098,0.,0.,0.,1.8739065,1.9868689,1.7943849,0.,-0.1149758,
 0.0008525,0.,0.,0.,2.7472728,-1.9729141,-1.9658226,0.,-0.7274936,-1.25
 44556,0.,0.,0.,-1.0872945,-0.4638171,0.891358,0.,0.8435101,1.1745445,0
 .,0.,0.,-2.8633452,1.496097,0.1182607,0.,-0.3355474,0.9746158,0.,0.,0.
 ,9.6926764,-0.2254481,0.5244219,0.,-0.4023553,-2.2067993,0.,0.,0.,-0.4
 82011,-1.3061896,-1.508189,0.,0.9909987,1.9725668,0.,0.,0.,-1.6367568,
 0.6110901,-0.0593081,0.,-1.2521407,-2.318652,0.,0.,0.,-6.9588245,0.054
 5241,0.0634526,0.,0.0506685,0.1079203,0.,0.,0.,0.1810456,0.1821047,-0.
 0008905,0.,-0.0120382,0.1567079,0.,0.,0.,-1.4590477,0.1436885,-0.19099
 71,0.,-0.0917404,0.1691892,0.,0.,0.,-0.9494714,0.2245046,0.1706653,0.,
 0.0506292,0.2807499,0.,0.,0.,-0.4337299,0.3294545,0.0730162,0.,0.03077
 88,0.1128131,0.,0.,0.,0.3158598\Polar=137.4935109,0.6087721,196.063001
 5,0.,0.,197.5490691\PG=CS [SG(C5H5N5O1)]\NImag=5\\0.91166527,0.1176566
 6,0.63517968,0.,0.,-0.00901044,-0.12550066,0.00248702,0.,0.82890696,-0
 .02059139,-0.25603355,0.,-0.18288040,0.66292352,0.,0.,-0.04849310,0.,0
 .,0.13621408,-0.05191321,-0.08960808,0.,-0.43558683,-0.04726546,0.,0.6
 3295517,-0.06771049,-0.02547918,0.,-0.04429150,-0.10846847,0.,0.051598
 89,0.43824401,0.,0.,0.03484058,0.,0.,-0.06628539,0.,0.,0.06835560,-0.0
 8192548,-0.00075353,0.,-0.07708424,0.05224354,0.,-0.10920800,0.0145655
 0,0.,0.79213121,0.00299906,0.00764289,0.,0.05804546,-0.03131119,0.,0.0
 6473372,-0.24861300,0.,0.00527458,0.63444297,0.,0.,-0.03698643,0.,0.,0
 .01138351,0.,0.,-0.03289406,0.,0.,0.00693313,0.02989079,0.00866764,0.,
 -0.01215063,-0.03117495,0.,-0.01081292,0.03404471,0.,-0.21648455,-0.01
 408030,0.,0.84475878,-0.01072211,-0.02196144,0.,0.02892783,0.01644200,
 0.,0.01371301,0.00009624,0.,0.06422187,-0.10688983,0.,0.20049592,0.516
 72939,0.,0.,-0.04871051,0.,0.,0.00143347,0.,0.,0.00892517,0.,0.,-0.100
 74741,0.,0.,0.03163967,-0.02754754,-0.00529045,0.,0.01722110,0.0213402
 6,0.,0.00089695,-0.00996073,0.,-0.07721857,0.01106503,0.,-0.47760281,-
 0.30280785,0.,0.55461207,-0.01230561,0.00417937,0.,0.00350251,0.006972
 34,0.,-0.00092537,-0.00427140,0.,-0.01651799,0.03387740,0.,-0.23916568
 ,-0.25300491,0.,0.31352735,0.27831538,0.,0.,0.01632756,0.,0.,-0.000611
 83,0.,0.,-0.00629810,0.,0.,0.02950209,0.,0.,-0.01329082,0.,0.,0.004927
 07,-0.00346534,0.00937369,0.,-0.01376839,-0.01039361,0.,0.00052781,0.0
 0171675,0.,0.01830685,0.03204814,0.,-0.17381646,0.10297353,0.,0.032233
 74,-0.06247331,0.,0.83673372,0.02644266,0.01962434,0.,-0.03810753,-0.0
 3965226,0.,0.01998611,0.00943925,0.,0.02834502,-0.08433418,0.,-0.04495
 517,-0.10469469,0.,0.03358159,-0.04170791,0.,-0.07668888,0.53007196,0.
 ,0.,0.04293384,0.,0.,0.00242061,0.,0.,-0.01224749,0.,0.,0.07647888,0.,
 0.,0.05826161,0.,0.,-0.01346153,0.,0.,-0.11116241,-0.00038505,-0.01076
 772,0.,-0.00805988,0.00125683,0.,0.01083699,-0.00900455,0.,0.01637633,
 0.01952517,0.,0.01324226,-0.07144610,0.,0.02577633,0.03581356,0.,-0.29
 018319,-0.06758264,0.,0.83863584,-0.00593875,-0.01011385,0.,0.01054613
 ,0.01026277,0.,-0.00466606,-0.00353420,0.,-0.01860707,0.01171698,0.,0.
 00932896,-0.04449291,0.,-0.02060041,-0.00766479,0.,-0.10441855,-0.1804
 6791,0.,-0.06413107,0.78725020,0.,0.,-0.12213242,0.,0.,-0.01452594,0.,
 0.,0.03590841,0.,0.,-0.17713249,0.,0.,-0.22155092,0.,0.,0.06763625,0.,
 0.,0.21130643,0.,0.,-0.62982019,0.00383348,0.00607064,0.,-0.00533216,-
 0.00542082,0.,0.00181267,0.00188872,0.,-0.00148687,-0.00972842,0.,-0.0
 1333387,0.01999973,0.,0.00650942,-0.00256543,0.,0.00567686,-0.06671492
 ,0.,-0.14356249,0.04897043,0.,0.90700121,-0.00840514,-0.00641682,0.,0.
 01555568,0.01272814,0.,-0.00679014,-0.00072364,0.,-0.00000527,0.017071
 64,0.,0.01990404,-0.00763409,0.,-0.03097448,-0.01607243,0.,0.01056055,
 -0.01290089,0.,0.05068195,-0.38560451,0.,0.00403604,0.78502570,0.,0.,0
 .00441455,0.,0.,0.00018011,0.,0.,-0.00170470,0.,0.,0.00523098,0.,0.,0.
 00855070,0.,0.,-0.00464261,0.,0.,-0.00438703,0.,0.,-0.00543590,0.,0.,-
 0.01427475,0.00499065,0.04785436,0.,0.00855004,0.01090425,0.,-0.011940
 25,-0.00572357,0.,-0.02394659,-0.00660035,0.,0.06294743,-0.01930979,0.
 ,-0.06433886,-0.03172593,0.,-0.01309076,0.07016303,0.,-0.41023273,0.05
 548796,0.,-0.01239253,-0.00096931,0.,0.54671444,0.02773429,-0.01876906
 ,0.,-0.03050027,-0.02297181,0.,0.01188478,-0.00229860,0.,0.02623795,-0
 .06750490,0.,-0.06880976,0.05628964,0.,0.07761170,0.03167453,0.,-0.080
 30104,-0.08995254,0.,0.10790017,-0.10512304,0.,0.04617019,0.02373266,0
 .,-0.07123565,0.42501264,0.,0.,0.00200392,0.,0.,0.00234482,0.,0.,-0.00
 993854,0.,0.,0.03516836,0.,0.,0.02406135,0.,0.,-0.00720886,0.,0.,-0.01
 423691,0.,0.,0.05478930,0.,0.,0.00694258,0.,0.,0.03051967,-0.27002465,
 0.06364229,0.,0.01933292,0.06601455,0.,-0.01236005,0.00756892,0.,-0.23
 171118,-0.16099232,0.,-0.04785800,-0.03144187,0.,0.00822520,0.01175762
 ,0.,-0.00097776,-0.01016002,0.,-0.04818350,0.07739582,0.,-0.00347105,0
 .00629127,0.,-0.09050572,-0.03993591,0.,0.69498183,0.06897204,-0.17692
 653,0.,0.05679894,-0.03850469,0.,-0.00578903,-0.06135590,0.,-0.1548785
 0,-0.15613786,0.,0.08608833,-0.04367887,0.,-0.08293117,-0.03739643,0.,
 0.04324543,0.11965719,0.,0.02814279,-0.06662975,0.,0.01808160,-0.05145
 544,0.,-0.04010267,-0.22653581,0.,-0.00336694,0.72593696,0.,0.,0.11549
 144,0.,0.,0.01349338,0.,0.,-0.02141041,0.,0.,0.13063193,0.,0.,0.184962
 39,0.,0.,-0.05342303,0.,0.,-0.18483210,0.,0.,0.56766471,0.,0.,-0.01093
 675,0.,0.,-0.09140752,0.,0.,-0.45914647,0.01398230,-0.01038006,0.,-0.1
 9743689,0.14876547,0.,-0.01968102,0.02225112,0.,-0.00402428,-0.0024524
 1,0.,-0.00074629,0.00166492,0.,0.00108970,0.00048259,0.,-0.00082651,-0
 .00120361,0.,-0.00060324,0.00012959,0.,-0.00004733,0.00063010,0.,0.002
 08301,-0.00181666,0.,-0.00278520,-0.00068408,0.,0.20915552,0.02298035,
 -0.01634293,0.,0.14575788,-0.21744898,0.,-0.00403909,0.01209420,0.,-0.
 00208619,0.00063172,0.,-0.00084352,0.00109793,0.,0.00113249,0.00046282
 ,0.,-0.00055959,-0.00137463,0.,-0.00013834,-0.00006677,0.,-0.00006312,
 0.00066412,0.,0.00216906,-0.00207656,0.,-0.00582575,-0.00067024,0.,-0.
 15835264,0.22321467,0.,0.,0.00309831,0.,0.,-0.03525873,0.,0.,0.0024649
 0,0.,0.,0.00432910,0.,0.,-0.00003505,0.,0.,0.00015820,0.,0.,0.00129467
 ,0.,0.,-0.00488046,0.,0.,0.00002873,0.,0.,0.00301587,0.,0.,0.00461147,
 0.,0.,0.02099266,0.00043934,-0.00010550,0.,-0.00013815,-0.00000217,0.,
 0.00055866,-0.00039984,0.,-0.00024665,-0.00023302,0.,0.00418076,0.0031
 2207,0.,-0.00166087,-0.00090234,0.,-0.39703236,0.12872698,0.,-0.017215
 29,0.01206414,0.,0.00194581,0.00118479,0.,-0.00293579,-0.00150656,0.,0
 .00035819,-0.00227401,0.,0.00000158,0.00001507,0.,0.41130080,0.0003207
 1,0.00069768,0.,-0.00031534,-0.00108753,0.,0.00160708,0.00057646,0.,-0
 .00117225,-0.00759064,0.,0.03870305,-0.00651337,0.,-0.00335876,0.00580
 882,0.,0.12884882,-0.12621360,0.,-0.02179025,0.01662971,0.,-0.00013462
 ,0.00081425,0.,-0.00422477,-0.00499532,0.,-0.00010702,0.00063558,0.,0.
 00013180,0.00004958,0.,-0.13789473,0.12306516,0.,0.,0.01904123,0.,0.,0
 .00382850,0.,0.,-0.00286134,0.,0.,0.02225335,0.,0.,0.02950803,0.,0.,-0
 .00927184,0.,0.,-0.01822181,0.,0.,0.11195920,0.,0.,0.00181088,0.,0.,-0
 .01694520,0.,0.,-0.08916913,0.,0.,0.00052850,0.,0.,-0.02911542,-0.0002
 9456,-0.00082413,0.,0.00106349,0.00109807,0.,-0.00030693,0.00000972,0.
 ,0.00035267,0.00222852,0.,0.00114273,-0.00064321,0.,-0.00238451,-0.001
 17118,0.,0.00140006,0.00074551,0.,0.00266339,-0.00031052,0.,-0.4293737
 3,0.13281852,0.,-0.00216545,0.00449336,0.,0.00018497,-0.00469020,0.,0.
 00004929,0.00004395,0.,0.00049461,-0.00089501,0.,0.43835051,-0.0011315
 3,-0.00070933,0.,0.00128763,0.00104975,0.,-0.00084919,-0.00026277,0.,-
 0.00066576,0.00146734,0.,0.00213808,-0.00373854,0.,-0.00208369,-0.0003
 0489,0.,0.00130875,0.00651621,0.,0.03214485,-0.00143197,0.,0.13352169,
 -0.12839383,0.,-0.00108042,-0.00308129,0.,0.00232898,-0.00310281,0.,0.
 00000914,0.00000669,0.,-0.00158420,-0.00179163,0.,-0.14566932,0.119245
 85,0.,0.,0.01597576,0.,0.,0.00192978,0.,0.,-0.00270469,0.,0.,0.0181031
 7,0.,0.,0.02231810,0.,0.,-0.00631587,0.,0.,-0.02505200,0.,0.,0.0798318
 4,0.,0.,0.01179117,0.,0.,-0.00996434,0.,0.,-0.06695365,0.,0.,0.0003999
 3,0.,0.,-0.01349037,0.,0.,-0.01542883,0.00020253,0.00043445,0.,-0.0008
 9120,-0.00072185,0.,0.00007108,-0.00010532,0.,-0.00012234,-0.00221448,
 0.,-0.00039457,0.00108544,0.,0.00202547,0.00132998,0.,-0.00140265,0.00
 073368,0.,0.01172232,0.00349785,0.,-0.31762053,-0.19539427,0.,0.002774
 09,-0.00501846,0.,-0.00066124,0.00535572,0.,-0.00005334,-0.00006160,0.
 ,-0.00002084,0.00028312,0.,-0.01122666,-0.01977218,0.,0.31565453,-0.00
 002326,0.00066709,0.,0.00002376,-0.00032263,0.,-0.00016927,0.00030361,
 0.,-0.00098492,-0.00079596,0.,-0.00075887,0.00161950,0.,-0.00047532,-0
 .00089089,0.,0.00390529,-0.00516117,0.,-0.03085050,-0.01984992,0.,-0.1
 9425186,-0.23002162,0.,-0.00156020,0.00394948,0.,0.00194907,0.00013754
 ,0.,0.00001033,0.00001602,0.,-0.00008112,-0.00006761,0.,0.01285557,0.0
 1453738,0.,0.21034165,0.23590000,0.,0.,0.00781914,0.,0.,0.00124488,0.,
 0.,-0.00157591,0.,0.,0.00867105,0.,0.,0.01639186,0.,0.,-0.00546454,0.,
 0.,-0.00948877,0.,0.,0.04662943,0.,0.,0.00245550,0.,0.,-0.00906374,0.,
 0.,-0.03618895,0.,0.,0.00015435,0.,0.,-0.00980098,0.,0.,-0.01025288,0.
 ,0.,-0.00159155,-0.40394787,-0.13845729,0.,0.00087452,-0.00317230,0.,0
 .00414988,0.00355168,0.,-0.00370833,0.00038164,0.,-0.00296266,0.000166
 63,0.,0.00216316,0.00133924,0.,-0.00031563,-0.00331180,0.,-0.00082809,
 0.00125154,0.,-0.00015891,0.00087567,0.,0.00348902,-0.00290814,0.,-0.0
 1454475,-0.01196823,0.,-0.00015729,-0.00012897,0.,-0.00002981,-0.00000
 184,0.,0.00005012,0.00009717,0.,-0.00005665,0.00006965,0.,0.41598330,-
 0.14027748,-0.13523837,0.,-0.02683780,0.00542258,0.,-0.00342190,-0.005
 74661,0.,0.00478303,-0.00367339,0.,0.00041752,0.00033395,0.,0.00022446
 ,0.00002298,0.,0.00085404,0.00115082,0.,0.00024585,-0.00088004,0.,0.00
 014016,-0.00081325,0.,-0.00404599,0.00264996,0.,0.01488132,0.01602704,
 0.,0.00081438,-0.00025764,0.,-0.00012957,-0.00001755,0.,-0.00008963,-0
 .00000617,0.,0.00022627,-0.00002081,0.,0.15221535,0.12104647,0.,0.,0.0
 0338656,0.,0.,-0.00929815,0.,0.,0.00742598,0.,0.,-0.00092516,0.,0.,-0.
 00171764,0.,0.,0.00143785,0.,0.,0.00039401,0.,0.,-0.00024725,0.,0.,-0.
 00002346,0.,0.,-0.00008076,0.,0.,-0.00338731,0.,0.,-0.00090245,0.,0.,-
 0.00005359,0.,0.,-0.00018713,0.,0.,0.00006109,0.,0.,0.00411741\\0.0294
 4192,-0.01773622,0.,0.01343891,0.01599770,0.,-0.01900047,0.00391090,0.
 ,-0.05805728,-0.04031275,0.,0.03940746,-0.01031801,0.,-0.02154805,-0.0
 0855726,0.,-0.03347974,0.01374350,0.,-0.02704379,0.01564663,0.,0.00292
 287,-0.00010068,0.,0.03465076,-0.04850978,0.,0.03902697,0.07724492,0.,
 0.00015562,-0.00087533,0.,0.00122907,-0.00052817,0.,-0.00096457,0.0003
 1048,0.,0.00021961,0.00146773,0.,-0.00039929,-0.00138366,0.\\\@


 JUST WHEN YOU THINK YOU'VE GOT THE WORLD ON A STRING,
 YOU FIND OUT IT'S YOUR LEASH.
 Job cpu time:       0 days  2 hours 47 minutes 18.1 seconds.
 Elapsed time:       0 days  0 hours  3 minutes 21.9 seconds.
 File lengths (MBytes):  RWF=    559 Int=      0 D2E=      0 Chk=     30 Scr=      1
 Normal termination of Gaussian 16 at Tue Nov 22 13:52:44 2022.
