 Entering Gaussian System, Link 0=/shared/gaussian/g16.b01/AVX2/g16/g16
 Initial command:
 /shared/gaussian/g16.b01/AVX2/g16/l1.exe "/scratch/marlene/SCRGAU.104637.Guanine6311-opt/Gau-105237.inp" -scrdir="/scratch/marlene/SCRGAU.104637.Guanine6311-opt/"
 Entering Link 1 = /shared/gaussian/g16.b01/AVX2/g16/l1.exe PID=    105238.
  
 Copyright (c) 1988-2017, Gaussian, Inc.  All Rights Reserved.
  
 This is part of the Gaussian(R) 16 program.  It is based on
 the Gaussian(R) 09 system (copyright 2009, Gaussian, Inc.),
 the Gaussian(R) 03 system (copyright 2003, Gaussian, Inc.),
 the Gaussian(R) 98 system (copyright 1998, Gaussian, Inc.),
 the Gaussian(R) 94 system (copyright 1995, Gaussian, Inc.),
 the Gaussian 92(TM) system (copyright 1992, Gaussian, Inc.),
 the Gaussian 90(TM) system (copyright 1990, Gaussian, Inc.),
 the Gaussian 88(TM) system (copyright 1988, Gaussian, Inc.),
 the Gaussian 86(TM) system (copyright 1986, Carnegie Mellon
 University), and the Gaussian 82(TM) system (copyright 1983,
 Carnegie Mellon University). Gaussian is a federally registered
 trademark of Gaussian, Inc.
  
 This software contains proprietary and confidential information,
 including trade secrets, belonging to Gaussian, Inc.
  
 This software is provided under written license and may be
 used, copied, transmitted, or stored only in accord with that
 written license.
  
 The following legend is applicable only to US Government
 contracts under FAR:
  
                    RESTRICTED RIGHTS LEGEND
  
 Use, reproduction and disclosure by the US Government is
 subject to restrictions as set forth in subparagraphs (a)
 and (c) of the Commercial Computer Software - Restricted
 Rights clause in FAR 52.227-19.
  
 Gaussian, Inc.
 340 Quinnipiac St., Bldg. 40, Wallingford CT 06492
  
  
 ---------------------------------------------------------------
 Warning -- This program may not be used in any manner that
 competes with the business of Gaussian, Inc. or will provide
 assistance to any competitor of Gaussian, Inc.  The licensee
 of this program is prohibited from giving any competitor of
 Gaussian, Inc. access to this program.  By using this program,
 the user acknowledges that Gaussian, Inc. is engaged in the
 business of creating and licensing software in the field of
 computational chemistry and represents and warrants to the
 licensee that it is not a competitor of Gaussian, Inc. and that
 it will not use this program in any manner prohibited above.
 ---------------------------------------------------------------
  

 Cite this work as:
 Gaussian 16, Revision B.01,
 M. J. Frisch, G. W. Trucks, H. B. Schlegel, G. E. Scuseria, 
 M. A. Robb, J. R. Cheeseman, G. Scalmani, V. Barone, 
 G. A. Petersson, H. Nakatsuji, X. Li, M. Caricato, A. V. Marenich, 
 J. Bloino, B. G. Janesko, R. Gomperts, B. Mennucci, H. P. Hratchian, 
 J. V. Ortiz, A. F. Izmaylov, J. L. Sonnenberg, D. Williams-Young, 
 F. Ding, F. Lipparini, F. Egidi, J. Goings, B. Peng, A. Petrone, 
 T. Henderson, D. Ranasinghe, V. G. Zakrzewski, J. Gao, N. Rega, 
 G. Zheng, W. Liang, M. Hada, M. Ehara, K. Toyota, R. Fukuda, 
 J. Hasegawa, M. Ishida, T. Nakajima, Y. Honda, O. Kitao, H. Nakai, 
 T. Vreven, K. Throssell, J. A. Montgomery, Jr., J. E. Peralta, 
 F. Ogliaro, M. J. Bearpark, J. J. Heyd, E. N. Brothers, K. N. Kudin, 
 V. N. Staroverov, T. A. Keith, R. Kobayashi, J. Normand, 
 K. Raghavachari, A. P. Rendell, J. C. Burant, S. S. Iyengar, 
 J. Tomasi, M. Cossi, J. M. Millam, M. Klene, C. Adamo, R. Cammi, 
 J. W. Ochterski, R. L. Martin, K. Morokuma, O. Farkas, 
 J. B. Foresman, and D. J. Fox, Gaussian, Inc., Wallingford CT, 2016.
 
 ******************************************
 Gaussian 16:  ES64L-G16RevB.01 20-Dec-2017
                22-Nov-2022 
 ******************************************
 %nprocshared=50
 Will use up to   50 processors via shared memory.
 %mem=5GB
 %chk=Guanine6311-opt.chk
 ------------------------------------
 #p opt cam-b3lyp/6-311+G(d,p) nosymm
 ------------------------------------
 1/18=20,19=15,26=3,38=1/1,3;
 2/9=110,12=2,15=1,17=6,18=5,40=1/2;
 3/5=4,6=6,7=111,11=2,25=1,30=1,71=1,74=-40/1,2,3;
 4//1;
 5/5=2,38=5/2;
 6/7=2,8=2,9=2,10=2,28=1/1;
 7/30=1/1,2,3,16;
 1/18=20,19=15,26=3/3(2);
 2/9=110,15=1/2;
 99//99;
 2/9=110,15=1/2;
 3/5=4,6=6,7=111,11=2,25=1,30=1,71=1,74=-40/1,2,3;
 4/5=5,16=3,69=1/1;
 5/5=2,38=5/2;
 7/30=1/1,2,3,16;
 1/18=20,19=15,26=3/3(-5);
 2/9=110,15=1/2;
 6/7=2,8=2,9=2,10=2,19=2,28=1/1;
 99/9=1/99;
 Leave Link    1 at Tue Nov 22 10:46:37 2022, MaxMem=   671088640 cpu:               1.3 elap:               0.0
 (Enter /shared/gaussian/g16.b01/AVX2/g16/l101.exe)
 -------
 Guanine
 -------
 Symbolic Z-matrix:
 Charge =  0 Multiplicity = 1
 N                    -2.16455   0.72937   0. 
 C                    -1.82367   2.06621   0. 
 N                    -0.54093   2.25386   0. 
 C                     0.        0.98762   0. 
 C                     1.36857   0.55797   0. 
 O                     2.40042   1.18613   0. 
 N                     1.42416  -0.86968   0. 
 C                     0.35668  -1.723     0. 
 N                     0.62753  -3.05317   0. 
 N                    -0.88208  -1.3208    0. 
 C                    -0.99616   0.02808   0. 
 H                    -2.5732    2.84265   0. 
 H                     2.36755  -1.23274   0. 
 H                     1.56178  -3.41861   0. 
 H                    -0.152    -3.68733   0. 
 H                    -3.08891   0.32874   0. 
 
 ITRead=  0  0  0  0  0  0  0  0  0  0  0  0  0  0  0  0
 MicOpt= -1 -1 -1 -1 -1 -1 -1 -1 -1 -1 -1 -1 -1 -1 -1 -1
 NAtoms=     16 NQM=       16 NQMF=       0 NMMI=      0 NMMIF=      0
                NMic=       0 NMicF=      0.
                    Isotopes and Nuclear Properties:
 (Nuclear quadrupole moments (NQMom) in fm**2, nuclear magnetic moments (NMagM)
  in nuclear magnetons)

  Atom         1           2           3           4           5           6           7           8           9          10
 IAtWgt=          14          12          14          12          12          16          14          12          14          14
 AtmWgt=  14.0030740  12.0000000  14.0030740  12.0000000  12.0000000  15.9949146  14.0030740  12.0000000  14.0030740  14.0030740
 NucSpn=           2           0           2           0           0           0           2           0           2           2
 AtZEff=  -0.0000000  -0.0000000  -0.0000000  -0.0000000  -0.0000000  -0.0000000  -0.0000000  -0.0000000  -0.0000000  -0.0000000
 NQMom=    2.0440000   0.0000000   2.0440000   0.0000000   0.0000000   0.0000000   2.0440000   0.0000000   2.0440000   2.0440000
 NMagM=    0.4037610   0.0000000   0.4037610   0.0000000   0.0000000   0.0000000   0.4037610   0.0000000   0.4037610   0.4037610
 AtZNuc=   7.0000000   6.0000000   7.0000000   6.0000000   6.0000000   8.0000000   7.0000000   6.0000000   7.0000000   7.0000000

  Atom        11          12          13          14          15          16
 IAtWgt=          12           1           1           1           1           1
 AtmWgt=  12.0000000   1.0078250   1.0078250   1.0078250   1.0078250   1.0078250
 NucSpn=           0           1           1           1           1           1
 AtZEff=  -0.0000000  -0.0000000  -0.0000000  -0.0000000  -0.0000000  -0.0000000
 NQMom=    0.0000000   0.0000000   0.0000000   0.0000000   0.0000000   0.0000000
 NMagM=    0.0000000   2.7928460   2.7928460   2.7928460   2.7928460   2.7928460
 AtZNuc=   6.0000000   1.0000000   1.0000000   1.0000000   1.0000000   1.0000000
 Leave Link  101 at Tue Nov 22 10:46:37 2022, MaxMem=   671088640 cpu:              11.2 elap:               0.3
 (Enter /shared/gaussian/g16.b01/AVX2/g16/l103.exe)

 GradGradGradGradGradGradGradGradGradGradGradGradGradGradGradGradGradGrad
 Berny optimization.
 Initialization pass.
                           ----------------------------
                           !    Initial Parameters    !
                           ! (Angstroms and Degrees)  !
 --------------------------                            --------------------------
 ! Name  Definition              Value          Derivative Info.                !
 --------------------------------------------------------------------------------
 ! R1    R(1,2)                  1.3796         estimate D2E/DX2                !
 ! R2    R(1,11)                 1.3627         estimate D2E/DX2                !
 ! R3    R(1,16)                 1.0074         estimate D2E/DX2                !
 ! R4    R(2,3)                  1.2964         estimate D2E/DX2                !
 ! R5    R(2,12)                 1.0792         estimate D2E/DX2                !
 ! R6    R(3,4)                  1.3769         estimate D2E/DX2                !
 ! R7    R(4,5)                  1.4344         estimate D2E/DX2                !
 ! R8    R(4,11)                 1.3831         estimate D2E/DX2                !
 ! R9    R(5,6)                  1.208          estimate D2E/DX2                !
 ! R10   R(5,7)                  1.4287         estimate D2E/DX2                !
 ! R11   R(7,8)                  1.3666         estimate D2E/DX2                !
 ! R12   R(7,13)                 1.0108         estimate D2E/DX2                !
 ! R13   R(8,9)                  1.3575         estimate D2E/DX2                !
 ! R14   R(8,10)                 1.3024         estimate D2E/DX2                !
 ! R15   R(9,14)                 1.0032         estimate D2E/DX2                !
 ! R16   R(9,15)                 1.0049         estimate D2E/DX2                !
 ! R17   R(10,11)                1.3537         estimate D2E/DX2                !
 ! A1    A(2,1,11)             106.6683         estimate D2E/DX2                !
 ! A2    A(2,1,16)             127.7376         estimate D2E/DX2                !
 ! A3    A(11,1,16)            125.5941         estimate D2E/DX2                !
 ! A4    A(1,2,3)              112.6275         estimate D2E/DX2                !
 ! A5    A(1,2,12)             121.7054         estimate D2E/DX2                !
 ! A6    A(3,2,12)             125.6671         estimate D2E/DX2                !
 ! A7    A(2,3,4)              104.8094         estimate D2E/DX2                !
 ! A8    A(3,4,5)              130.5614         estimate D2E/DX2                !
 ! A9    A(3,4,11)             110.7954         estimate D2E/DX2                !
 ! A10   A(5,4,11)             118.6433         estimate D2E/DX2                !
 ! A11   A(4,5,6)              131.2387         estimate D2E/DX2                !
 ! A12   A(4,5,7)              109.6591         estimate D2E/DX2                !
 ! A13   A(6,5,7)              119.1021         estimate D2E/DX2                !
 ! A14   A(5,7,8)              126.4085         estimate D2E/DX2                !
 ! A15   A(5,7,13)             113.2786         estimate D2E/DX2                !
 ! A16   A(8,7,13)             120.3129         estimate D2E/DX2                !
 ! A17   A(7,8,9)              117.1291         estimate D2E/DX2                !
 ! A18   A(7,8,10)             123.3741         estimate D2E/DX2                !
 ! A19   A(9,8,10)             119.4968         estimate D2E/DX2                !
 ! A20   A(8,9,14)             122.8725         estimate D2E/DX2                !
 ! A21   A(8,9,15)             117.6199         estimate D2E/DX2                !
 ! A22   A(14,9,15)            119.5077         estimate D2E/DX2                !
 ! A23   A(8,10,11)            112.8221         estimate D2E/DX2                !
 ! A24   A(1,11,4)             105.0994         estimate D2E/DX2                !
 ! A25   A(1,11,10)            125.8076         estimate D2E/DX2                !
 ! A26   A(4,11,10)            129.0929         estimate D2E/DX2                !
 ! D1    D(11,1,2,3)             0.0            estimate D2E/DX2                !
 ! D2    D(11,1,2,12)          180.0            estimate D2E/DX2                !
 ! D3    D(16,1,2,3)           180.0            estimate D2E/DX2                !
 ! D4    D(16,1,2,12)            0.0            estimate D2E/DX2                !
 ! D5    D(2,1,11,4)             0.0            estimate D2E/DX2                !
 ! D6    D(2,1,11,10)          180.0            estimate D2E/DX2                !
 ! D7    D(16,1,11,4)          180.0            estimate D2E/DX2                !
 ! D8    D(16,1,11,10)           0.0            estimate D2E/DX2                !
 ! D9    D(1,2,3,4)              0.0            estimate D2E/DX2                !
 ! D10   D(12,2,3,4)           180.0            estimate D2E/DX2                !
 ! D11   D(2,3,4,5)            180.0            estimate D2E/DX2                !
 ! D12   D(2,3,4,11)             0.0            estimate D2E/DX2                !
 ! D13   D(3,4,5,6)              0.0            estimate D2E/DX2                !
 ! D14   D(3,4,5,7)            180.0            estimate D2E/DX2                !
 ! D15   D(11,4,5,6)           180.0            estimate D2E/DX2                !
 ! D16   D(11,4,5,7)             0.0            estimate D2E/DX2                !
 ! D17   D(3,4,11,1)             0.0            estimate D2E/DX2                !
 ! D18   D(3,4,11,10)          180.0            estimate D2E/DX2                !
 ! D19   D(5,4,11,1)           180.0            estimate D2E/DX2                !
 ! D20   D(5,4,11,10)            0.0            estimate D2E/DX2                !
 ! D21   D(4,5,7,8)              0.0            estimate D2E/DX2                !
 ! D22   D(4,5,7,13)           180.0            estimate D2E/DX2                !
 ! D23   D(6,5,7,8)            180.0            estimate D2E/DX2                !
 ! D24   D(6,5,7,13)             0.0            estimate D2E/DX2                !
 ! D25   D(5,7,8,9)            180.0            estimate D2E/DX2                !
 ! D26   D(5,7,8,10)             0.0            estimate D2E/DX2                !
 ! D27   D(13,7,8,9)             0.0            estimate D2E/DX2                !
 ! D28   D(13,7,8,10)          180.0            estimate D2E/DX2                !
 ! D29   D(7,8,9,14)             0.0            estimate D2E/DX2                !
 ! D30   D(7,8,9,15)           180.0            estimate D2E/DX2                !
 ! D31   D(10,8,9,14)          180.0            estimate D2E/DX2                !
 ! D32   D(10,8,9,15)            0.0            estimate D2E/DX2                !
 ! D33   D(7,8,10,11)            0.0            estimate D2E/DX2                !
 ! D34   D(9,8,10,11)          180.0            estimate D2E/DX2                !
 ! D35   D(8,10,11,1)          180.0            estimate D2E/DX2                !
 ! D36   D(8,10,11,4)            0.0            estimate D2E/DX2                !
 --------------------------------------------------------------------------------
 Trust Radius=3.00D-01 FncErr=1.00D-07 GrdErr=1.00D-06 EigMax=2.50D+02 EigMin=1.00D-04
 Number of steps in this run=     89 maximum allowed number of steps=    100.
 GradGradGradGradGradGradGradGradGradGradGradGradGradGradGradGradGradGrad

 Leave Link  103 at Tue Nov 22 10:46:37 2022, MaxMem=   671088640 cpu:               0.5 elap:               0.0
 (Enter /shared/gaussian/g16.b01/AVX2/g16/l202.exe)
                          Input orientation:                          
 ---------------------------------------------------------------------
 Center     Atomic      Atomic             Coordinates (Angstroms)
 Number     Number       Type             X           Y           Z
 ---------------------------------------------------------------------
      1          7           0       -2.164547    0.729374    0.000000
      2          6           0       -1.823669    2.066210    0.000000
      3          7           0       -0.540931    2.253857    0.000000
      4          6           0        0.000000    0.987621    0.000000
      5          6           0        1.368570    0.557966    0.000000
      6          8           0        2.400416    1.186125    0.000000
      7          7           0        1.424157   -0.869681    0.000000
      8          6           0        0.356682   -1.723002    0.000000
      9          7           0        0.627528   -3.053172    0.000000
     10          7           0       -0.882076   -1.320799    0.000000
     11          6           0       -0.996160    0.028079    0.000000
     12          1           0       -2.573196    2.842649    0.000000
     13          1           0        2.367552   -1.232740    0.000000
     14          1           0        1.561780   -3.418613    0.000000
     15          1           0       -0.152003   -3.687334    0.000000
     16          1           0       -3.088910    0.328741    0.000000
 ---------------------------------------------------------------------
                    Distance matrix (angstroms):
                    1          2          3          4          5
     1  N    0.000000
     2  C    1.379612   0.000000
     3  N    2.227146   1.296390   0.000000
     4  C    2.179898   2.118755   1.376939   0.000000
     5  C    3.537272   3.530608   2.553868   1.434429   0.000000
     6  O    4.587756   4.314794   3.129149   2.408610   1.208011
     7  N    3.928839   4.378108   3.690266   2.340469   1.428729
     8  C    3.517207   4.371734   4.076900   2.733990   2.495342
     9  N    4.701419   5.675953   5.434138   4.089230   3.686389
    10  N    2.418252   3.515455   3.590898   2.471206   2.931751
    11  C    1.362697   2.199716   2.271854   1.383133   2.423371
    12  H    2.152423   1.079189   2.115840   3.172139   4.556018
    13  H    4.938604   5.333798   4.540444   3.245814   2.050510
    14  H    5.575958   6.445506   6.049654   4.674832   3.981270
    15  H    4.853622   5.991472   5.953908   4.677425   4.509403
    16  H    1.007449   2.149333   3.193473   3.158400   4.463370
                    6          7          8          9         10
     6  O    0.000000
     7  N    2.275834   0.000000
     8  C    3.555259   1.366623   0.000000
     9  N    4.595081   2.324274   1.357464   0.000000
    10  N    4.130305   2.349940   1.302416   2.297830   0.000000
    11  C    3.588565   2.581455   2.212796   3.482882   1.353694
    12  H    5.242222   5.455293   5.424883   6.708602   4.493794
    13  H    2.419088   1.010844   2.069772   2.518265   3.250821
    14  H    4.680483   2.552645   2.080230   1.003182   3.220754
    15  H    5.501404   3.228537   2.029128   1.004903   2.476589
    16  H    5.555880   4.669474   4.010206   5.024863   2.755195
                   11         12         13         14         15
    11  C    0.000000
    12  H    3.226274   0.000000
    13  H    3.592245   6.404669   0.000000
    14  H    4.292172   7.503428   2.329659   0.000000
    15  H    3.810104   6.964399   3.517554   1.734723   0.000000
    16  H    2.114237   2.566261   5.675491   5.972569   4.975367
                   16
    16  H    0.000000
 Symmetry turned off by external request.
 Stoichiometry    C5H5N5O
 Framework group  CS[SG(C5H5N5O)]
 Deg. of freedom    29
 Full point group                 CS      NOp   2
 Rotational constants (GHZ):           1.9392099           1.1222569           0.7108657
 Leave Link  202 at Tue Nov 22 10:46:37 2022, MaxMem=   671088640 cpu:               0.4 elap:               0.0
 (Enter /shared/gaussian/g16.b01/AVX2/g16/l301.exe)
 Standard basis: 6-311+G(d,p) (5D, 7F)
 Ernie: Thresh=  0.10000D-02 Tol=  0.10000D-05 Strict=F.
   272 basis functions,   436 primitive gaussians,   283 cartesian basis functions
    39 alpha electrons       39 beta electrons
       nuclear repulsion energy       597.2650383593 Hartrees.
 IExCor=20419 DFT=T Ex+Corr=CAM-B3LYP ExCW=0 ScaHFX=  1.000000
 ScaDFX=  1.000000  1.000000  1.000000  0.810000 ScalE2=  1.000000  1.000000
 IRadAn=      5 IRanWt=     -1 IRanGd=            0 ICorTp=0 IEmpDi=  4
 HFx  wShort=  0.000000 wLong=  0.330000 cFull=  0.190000 cShort=  0.000000 cLong=  0.460000
 DFx  wShort=  0.000000 wLong=  0.330000 cFull=  0.190000 cShort=  0.000000 cLong=  0.460000
 NAtoms=   16 NActive=   16 NUniq=   16 SFac= 1.00D+00 NAtFMM=   60 NAOKFM=F Big=F
 Integral buffers will be    131072 words long.
 Raffenetti 2 integral format.
 Two-electron integral symmetry is turned off.
 Leave Link  301 at Tue Nov 22 10:46:37 2022, MaxMem=   671088640 cpu:               2.4 elap:               0.1
 (Enter /shared/gaussian/g16.b01/AVX2/g16/l302.exe)
 NPDir=0 NMtPBC=     1 NCelOv=     1 NCel=       1 NClECP=     1 NCelD=      1
         NCelK=      1 NCelE2=     1 NClLst=     1 CellRange=     0.0.
 One-electron integrals computed using PRISM.
 NBasis=   272 RedAO= T EigKep=  5.16D-06  NBF=   272
 NBsUse=   272 1.00D-06 EigRej= -1.00D+00 NBFU=   272
 Precomputing XC quadrature grid using
 IXCGrd= 4 IRadAn=           5 IRanWt=          -1 IRanGd=           0 AccXCQ= 0.00D+00.
 Generated NRdTot=       0 NPtTot=           0 NUsed=           0 NTot=          32
 NSgBfM=   283   283   283   283   283 MxSgAt=    16 MxSgA2=    16.
 Leave Link  302 at Tue Nov 22 10:46:37 2022, MaxMem=   671088640 cpu:              11.9 elap:               0.3
 (Enter /shared/gaussian/g16.b01/AVX2/g16/l303.exe)
 DipDrv:  MaxL=1.
 Leave Link  303 at Tue Nov 22 10:46:37 2022, MaxMem=   671088640 cpu:               1.8 elap:               0.1
 (Enter /shared/gaussian/g16.b01/AVX2/g16/l401.exe)
 ExpMin= 4.38D-02 ExpMax= 8.59D+03 ExpMxC= 1.30D+03 IAcc=3 IRadAn=         5 AccDes= 0.00D+00
 Harris functional with IExCor=20419 and IRadAn=       5 diagonalized for initial guess.
 HarFok:  IExCor=20419 AccDes= 0.00D+00 IRadAn=         5 IDoV= 1 UseB2=F ITyADJ=14
 ICtDFT=  3500011 ScaDFX=  1.000000  1.000000  1.000000  1.000000
 FoFCou: FMM=F IPFlag=           0 FMFlag=      100000 FMFlg1=           0
         NFxFlg=           0 DoJE=T BraDBF=F KetDBF=T FulRan=T
         wScrn=  0.000000 ICntrl=       500 IOpCl=  0 I1Cent=   200000004 NGrid=           0
         NMat0=    1 NMatS0=      1 NMatT0=    0 NMatD0=    1 NMtDS0=    0 NMtDT0=    0
 Symmetry not used in FoFCou.
 Harris En= -522.909821467736    
 JPrj=0 DoOrth=F DoCkMO=F.
 Leave Link  401 at Tue Nov 22 10:46:38 2022, MaxMem=   671088640 cpu:              18.2 elap:               0.4
 (Enter /shared/gaussian/g16.b01/AVX2/g16/l502.exe)
 Two-electron integral symmetry not used.
 Closed shell SCF:
 Using DIIS extrapolation, IDIIS=  1040.
 NGot=   671088640 LenX=   670912267 LenY=   670831737
 Requested convergence on RMS density matrix=1.00D-08 within 128 cycles.
 Requested convergence on MAX density matrix=1.00D-06.
 Requested convergence on             energy=1.00D-06.
 No special actions if energy rises.
 Fock matrices will be formed incrementally for  20 cycles.

 Cycle   1  Pass 1  IDiag  1:
 FoFJK:  IHMeth= 1 ICntrl=       0 DoSepK=T KAlg= 0 I1Cent=           0 FoldK=F
 IRaf=         1 NMat=       1 IRICut=       1 DoRegI=T DoRafI=F ISym2E= 0 IDoP0=0 IntGTp=1.
 FoFCou: FMM=F IPFlag=           0 FMFlag=      100000 FMFlg1=           0
         NFxFlg=           0 DoJE=T BraDBF=F KetDBF=F FulRan=T
         wScrn=  0.000000 ICntrl=       500 IOpCl=  0 I1Cent=           0 NGrid=           0
         NMat0=    1 NMatS0=      1 NMatT0=    0 NMatD0=    1 NMtDS0=    0 NMtDT0=    0
 Symmetry not used in FoFCou.
 E= -542.342602563049    
 DIIS: error= 6.26D-02 at cycle   1 NSaved=   1.
 NSaved= 1 IEnMin= 1 EnMin= -542.342602563049     IErMin= 1 ErrMin= 6.26D-02
 ErrMax= 6.26D-02  0.00D+00 EMaxC= 1.00D-01 BMatC= 9.01D-01 BMatP= 9.01D-01
 IDIUse=3 WtCom= 3.74D-01 WtEn= 6.26D-01
 Coeff-Com:  0.100D+01
 Coeff-En:   0.100D+01
 Coeff:      0.100D+01
 Gap=     0.298 Goal=   None    Shift=    0.000
 GapD=    0.298 DampG=1.000 DampE=0.500 DampFc=0.5000 IDamp=-1.
 Damping current iteration by 5.00D-01
 RMSDP=6.35D-03 MaxDP=4.45D-01              OVMax= 1.49D-01

 Cycle   2  Pass 1  IDiag  1:
 RMSU=  2.99D-03    CP:  1.05D+00
 E= -542.404343976144     Delta-E=       -0.061741413096 Rises=F Damp=T
 DIIS: error= 2.99D-02 at cycle   2 NSaved=   2.
 NSaved= 2 IEnMin= 2 EnMin= -542.404343976144     IErMin= 2 ErrMin= 2.99D-02
 ErrMax= 2.99D-02  0.00D+00 EMaxC= 1.00D-01 BMatC= 1.92D-01 BMatP= 9.01D-01
 IDIUse=3 WtCom= 7.01D-01 WtEn= 2.99D-01
 Coeff-Com: -0.668D+00 0.167D+01
 Coeff-En:   0.000D+00 0.100D+01
 Coeff:     -0.469D+00 0.147D+01
 Gap=     0.335 Goal=   None    Shift=    0.000
 RMSDP=4.06D-03 MaxDP=4.11D-01 DE=-6.17D-02 OVMax= 1.00D-01

 Cycle   3  Pass 1  IDiag  1:
 RMSU=  3.03D-03    CP:  9.18D-01  9.40D-01
 E= -542.431616000682     Delta-E=       -0.027272024538 Rises=F Damp=F
 DIIS: error= 1.89D-02 at cycle   3 NSaved=   3.
 NSaved= 3 IEnMin= 3 EnMin= -542.431616000682     IErMin= 3 ErrMin= 1.89D-02
 ErrMax= 1.89D-02  0.00D+00 EMaxC= 1.00D-01 BMatC= 5.35D-02 BMatP= 1.92D-01
 IDIUse=3 WtCom= 8.11D-01 WtEn= 1.89D-01
 Coeff-Com: -0.399D+00 0.873D+00 0.526D+00
 Coeff-En:   0.000D+00 0.121D+00 0.879D+00
 Coeff:     -0.323D+00 0.731D+00 0.593D+00
 Gap=     0.272 Goal=   None    Shift=    0.000
 RMSDP=2.57D-03 MaxDP=1.91D-01 DE=-2.73D-02 OVMax= 6.26D-02

 Cycle   4  Pass 1  IDiag  1:
 RMSU=  5.23D-04    CP:  1.00D+00  1.43D+00  5.95D-01
 E= -542.469474084732     Delta-E=       -0.037858084050 Rises=F Damp=F
 DIIS: error= 5.79D-03 at cycle   4 NSaved=   4.
 NSaved= 4 IEnMin= 4 EnMin= -542.469474084732     IErMin= 4 ErrMin= 5.79D-03
 ErrMax= 5.79D-03  0.00D+00 EMaxC= 1.00D-01 BMatC= 6.69D-03 BMatP= 5.35D-02
 IDIUse=3 WtCom= 9.42D-01 WtEn= 5.79D-02
 Coeff-Com: -0.163D+00 0.349D+00 0.344D+00 0.470D+00
 Coeff-En:   0.000D+00 0.000D+00 0.694D-01 0.931D+00
 Coeff:     -0.153D+00 0.329D+00 0.328D+00 0.497D+00
 Gap=     0.275 Goal=   None    Shift=    0.000
 RMSDP=1.30D-03 MaxDP=1.10D-01 DE=-3.79D-02 OVMax= 1.69D-02

 Cycle   5  Pass 1  IDiag  1:
 RMSU=  3.16D-04    CP:  9.58D-01  1.25D+00  8.27D-01  5.41D-01
 E= -542.474239707674     Delta-E=       -0.004765622941 Rises=F Damp=F
 DIIS: error= 1.08D-03 at cycle   5 NSaved=   5.
 NSaved= 5 IEnMin= 5 EnMin= -542.474239707674     IErMin= 5 ErrMin= 1.08D-03
 ErrMax= 1.08D-03  0.00D+00 EMaxC= 1.00D-01 BMatC= 1.98D-04 BMatP= 6.69D-03
 IDIUse=3 WtCom= 9.89D-01 WtEn= 1.08D-02
 Coeff-Com: -0.315D-01 0.664D-01 0.931D-01 0.239D+00 0.633D+00
 Coeff-En:   0.000D+00 0.000D+00 0.000D+00 0.000D+00 0.100D+01
 Coeff:     -0.311D-01 0.656D-01 0.921D-01 0.237D+00 0.637D+00
 Gap=     0.276 Goal=   None    Shift=    0.000
 RMSDP=8.54D-05 MaxDP=2.41D-03 DE=-4.77D-03 OVMax= 4.27D-03

 Cycle   6  Pass 1  IDiag  1:
 RMSU=  6.39D-05    CP:  9.58D-01  1.27D+00  8.28D-01  5.91D-01  9.97D-01
 E= -542.474385135697     Delta-E=       -0.000145428024 Rises=F Damp=F
 DIIS: error= 3.11D-04 at cycle   6 NSaved=   6.
 NSaved= 6 IEnMin= 6 EnMin= -542.474385135697     IErMin= 6 ErrMin= 3.11D-04
 ErrMax= 3.11D-04  0.00D+00 EMaxC= 1.00D-01 BMatC= 1.36D-05 BMatP= 1.98D-04
 IDIUse=3 WtCom= 9.97D-01 WtEn= 3.11D-03
 Coeff-Com:  0.108D-01-0.234D-01-0.111D-01 0.315D-01 0.285D+00 0.708D+00
 Coeff-En:   0.000D+00 0.000D+00 0.000D+00 0.000D+00 0.000D+00 0.100D+01
 Coeff:      0.108D-01-0.234D-01-0.111D-01 0.314D-01 0.284D+00 0.709D+00
 Gap=     0.276 Goal=   None    Shift=    0.000
 RMSDP=9.21D-05 MaxDP=8.27D-03 DE=-1.45D-04 OVMax= 1.27D-03

 Cycle   7  Pass 1  IDiag  1:
 RMSU=  3.86D-05    CP:  9.55D-01  1.26D+00  8.44D-01  5.86D-01  1.11D+00
                    CP:  1.03D+00
 E= -542.474397997055     Delta-E=       -0.000012861358 Rises=F Damp=F
 DIIS: error= 9.69D-05 at cycle   7 NSaved=   7.
 NSaved= 7 IEnMin= 7 EnMin= -542.474397997055     IErMin= 7 ErrMin= 9.69D-05
 ErrMax= 9.69D-05  0.00D+00 EMaxC= 1.00D-01 BMatC= 2.13D-06 BMatP= 1.36D-05
 IDIUse=1 WtCom= 1.00D+00 WtEn= 0.00D+00
 Coeff-Com:  0.863D-02-0.185D-01-0.151D-01-0.114D-01 0.812D-01 0.350D+00
 Coeff-Com:  0.605D+00
 Coeff:      0.863D-02-0.185D-01-0.151D-01-0.114D-01 0.812D-01 0.350D+00
 Coeff:      0.605D+00
 Gap=     0.276 Goal=   None    Shift=    0.000
 RMSDP=3.12D-05 MaxDP=2.69D-03 DE=-1.29D-05 OVMax= 4.48D-04

 Cycle   8  Pass 1  IDiag  1:
 RMSU=  9.54D-06    CP:  9.54D-01  1.26D+00  8.49D-01  5.86D-01  1.13D+00
                    CP:  1.09D+00  9.70D-01
 E= -542.474399966843     Delta-E=       -0.000001969788 Rises=F Damp=F
 DIIS: error= 4.01D-05 at cycle   8 NSaved=   8.
 NSaved= 8 IEnMin= 8 EnMin= -542.474399966843     IErMin= 8 ErrMin= 4.01D-05
 ErrMax= 4.01D-05  0.00D+00 EMaxC= 1.00D-01 BMatC= 2.36D-07 BMatP= 2.13D-06
 IDIUse=1 WtCom= 1.00D+00 WtEn= 0.00D+00
 Coeff-Com:  0.154D-02-0.325D-02-0.437D-02-0.127D-01-0.151D-01 0.203D-01
 Coeff-Com:  0.234D+00 0.780D+00
 Coeff:      0.154D-02-0.325D-02-0.437D-02-0.127D-01-0.151D-01 0.203D-01
 Coeff:      0.234D+00 0.780D+00
 Gap=     0.276 Goal=   None    Shift=    0.000
 RMSDP=2.02D-05 MaxDP=1.79D-03 DE=-1.97D-06 OVMax= 1.99D-04

 Cycle   9  Pass 1  IDiag  1:
 RMSU=  3.82D-06    CP:  9.54D-01  1.25D+00  8.52D-01  5.80D-01  1.16D+00
                    CP:  1.14D+00  1.11D+00  9.11D-01
 E= -542.474400250420     Delta-E=       -0.000000283576 Rises=F Damp=F
 DIIS: error= 1.35D-05 at cycle   9 NSaved=   9.
 NSaved= 9 IEnMin= 9 EnMin= -542.474400250420     IErMin= 9 ErrMin= 1.35D-05
 ErrMax= 1.35D-05  0.00D+00 EMaxC= 1.00D-01 BMatC= 2.49D-08 BMatP= 2.36D-07
 IDIUse=1 WtCom= 1.00D+00 WtEn= 0.00D+00
 Coeff-Com: -0.377D-03 0.817D-03-0.227D-04-0.377D-02-0.124D-01-0.293D-01
 Coeff-Com:  0.140D-01 0.284D+00 0.748D+00
 Coeff:     -0.377D-03 0.817D-03-0.227D-04-0.377D-02-0.124D-01-0.293D-01
 Coeff:      0.140D-01 0.284D+00 0.748D+00
 Gap=     0.276 Goal=   None    Shift=    0.000
 RMSDP=4.00D-06 MaxDP=3.25D-04 DE=-2.84D-07 OVMax= 6.93D-05

 Cycle  10  Pass 1  IDiag  1:
 RMSU=  1.03D-06    CP:  9.54D-01  1.25D+00  8.53D-01  5.78D-01  1.17D+00
                    CP:  1.15D+00  1.14D+00  9.78D-01  1.20D+00
 E= -542.474400278492     Delta-E=       -0.000000028072 Rises=F Damp=F
 DIIS: error= 7.27D-06 at cycle  10 NSaved=  10.
 NSaved=10 IEnMin=10 EnMin= -542.474400278492     IErMin=10 ErrMin= 7.27D-06
 ErrMax= 7.27D-06  0.00D+00 EMaxC= 1.00D-01 BMatC= 7.10D-09 BMatP= 2.49D-08
 IDIUse=1 WtCom= 1.00D+00 WtEn= 0.00D+00
 Coeff-Com: -0.433D-03 0.924D-03 0.697D-03 0.267D-03-0.277D-02-0.177D-01
 Coeff-Com: -0.374D-01 0.484D-02 0.410D+00 0.641D+00
 Coeff:     -0.433D-03 0.924D-03 0.697D-03 0.267D-03-0.277D-02-0.177D-01
 Coeff:     -0.374D-01 0.484D-02 0.410D+00 0.641D+00
 Gap=     0.276 Goal=   None    Shift=    0.000
 RMSDP=1.11D-06 MaxDP=7.82D-05 DE=-2.81D-08 OVMax= 4.73D-05

 Cycle  11  Pass 1  IDiag  1:
 RMSU=  4.54D-07    CP:  9.54D-01  1.25D+00  8.53D-01  5.77D-01  1.17D+00
                    CP:  1.15D+00  1.16D+00  9.77D-01  1.30D+00  8.71D-01
 E= -542.474400286014     Delta-E=       -0.000000007522 Rises=F Damp=F
 DIIS: error= 1.51D-06 at cycle  11 NSaved=  11.
 NSaved=11 IEnMin=11 EnMin= -542.474400286014     IErMin=11 ErrMin= 1.51D-06
 ErrMax= 1.51D-06  0.00D+00 EMaxC= 1.00D-01 BMatC= 3.35D-10 BMatP= 7.10D-09
 IDIUse=1 WtCom= 1.00D+00 WtEn= 0.00D+00
 Coeff-Com: -0.995D-04 0.211D-03 0.201D-03 0.316D-03 0.928D-04-0.397D-02
 Coeff-Com: -0.153D-01-0.194D-01 0.839D-01 0.220D+00 0.734D+00
 Coeff:     -0.995D-04 0.211D-03 0.201D-03 0.316D-03 0.928D-04-0.397D-02
 Coeff:     -0.153D-01-0.194D-01 0.839D-01 0.220D+00 0.734D+00
 Gap=     0.276 Goal=   None    Shift=    0.000
 RMSDP=2.17D-07 MaxDP=1.31D-05 DE=-7.52D-09 OVMax= 7.75D-06

 Cycle  12  Pass 1  IDiag  1:
 RMSU=  1.07D-07    CP:  9.54D-01  1.25D+00  8.53D-01  5.77D-01  1.17D+00
                    CP:  1.15D+00  1.16D+00  9.80D-01  1.33D+00  9.58D-01
                    CP:  1.02D+00
 E= -542.474400286409     Delta-E=       -0.000000000395 Rises=F Damp=F
 DIIS: error= 6.75D-07 at cycle  12 NSaved=  12.
 NSaved=12 IEnMin=12 EnMin= -542.474400286409     IErMin=12 ErrMin= 6.75D-07
 ErrMax= 6.75D-07  0.00D+00 EMaxC= 1.00D-01 BMatC= 7.27D-11 BMatP= 3.35D-10
 IDIUse=1 WtCom= 1.00D+00 WtEn= 0.00D+00
 Coeff-Com:  0.128D-04-0.283D-04 0.719D-05 0.150D-03 0.649D-03 0.103D-02
 Coeff-Com: -0.153D-02-0.102D-01-0.281D-01-0.462D-02 0.334D+00 0.708D+00
 Coeff:      0.128D-04-0.283D-04 0.719D-05 0.150D-03 0.649D-03 0.103D-02
 Coeff:     -0.153D-02-0.102D-01-0.281D-01-0.462D-02 0.334D+00 0.708D+00
 Gap=     0.276 Goal=   None    Shift=    0.000
 RMSDP=1.12D-07 MaxDP=9.47D-06 DE=-3.95D-10 OVMax= 5.62D-06

 Cycle  13  Pass 1  IDiag  1:
 RMSU=  5.87D-08    CP:  9.54D-01  1.25D+00  8.53D-01  5.77D-01  1.17D+00
                    CP:  1.15D+00  1.16D+00  9.76D-01  1.34D+00  9.73D-01
                    CP:  1.11D+00  1.06D+00
 E= -542.474400286493     Delta-E=       -0.000000000084 Rises=F Damp=F
 DIIS: error= 1.64D-07 at cycle  13 NSaved=  13.
 NSaved=13 IEnMin=13 EnMin= -542.474400286493     IErMin=13 ErrMin= 1.64D-07
 ErrMax= 1.64D-07  0.00D+00 EMaxC= 1.00D-01 BMatC= 3.77D-12 BMatP= 7.27D-11
 IDIUse=1 WtCom= 1.00D+00 WtEn= 0.00D+00
 Coeff-Com:  0.113D-04-0.242D-04-0.180D-04-0.667D-05 0.145D-03 0.517D-03
 Coeff-Com:  0.103D-02-0.567D-03-0.114D-01-0.189D-01-0.104D-01 0.130D+00
 Coeff-Com:  0.909D+00
 Coeff:      0.113D-04-0.242D-04-0.180D-04-0.667D-05 0.145D-03 0.517D-03
 Coeff:      0.103D-02-0.567D-03-0.114D-01-0.189D-01-0.104D-01 0.130D+00
 Coeff:      0.909D+00
 Gap=     0.276 Goal=   None    Shift=    0.000
 RMSDP=4.21D-08 MaxDP=3.98D-06 DE=-8.41D-11 OVMax= 1.55D-06

 Cycle  14  Pass 1  IDiag  1:
 RMSU=  1.31D-08    CP:  9.54D-01  1.25D+00  8.53D-01  5.77D-01  1.17D+00
                    CP:  1.15D+00  1.16D+00  9.75D-01  1.34D+00  9.79D-01
                    CP:  1.12D+00  1.16D+00  1.27D+00
 E= -542.474400286501     Delta-E=       -0.000000000008 Rises=F Damp=F
 DIIS: error= 8.43D-08 at cycle  14 NSaved=  14.
 NSaved=14 IEnMin=14 EnMin= -542.474400286501     IErMin=14 ErrMin= 8.43D-08
 ErrMax= 8.43D-08  0.00D+00 EMaxC= 1.00D-01 BMatC= 6.77D-13 BMatP= 3.77D-12
 IDIUse=1 WtCom= 1.00D+00 WtEn= 0.00D+00
 Coeff-Com:  0.295D-05-0.617D-05-0.870D-05-0.241D-04-0.263D-04 0.637D-04
 Coeff-Com:  0.630D-03 0.993D-03-0.116D-02-0.770D-02-0.467D-01-0.283D-01
 Coeff-Com:  0.372D+00 0.710D+00
 Coeff:      0.295D-05-0.617D-05-0.870D-05-0.241D-04-0.263D-04 0.637D-04
 Coeff:      0.630D-03 0.993D-03-0.116D-02-0.770D-02-0.467D-01-0.283D-01
 Coeff:      0.372D+00 0.710D+00
 Gap=     0.276 Goal=   None    Shift=    0.000
 RMSDP=1.52D-08 MaxDP=1.33D-06 DE=-7.73D-12 OVMax= 5.11D-07

 Cycle  15  Pass 1  IDiag  1:
 RMSU=  5.17D-09    CP:  9.54D-01  1.25D+00  8.53D-01  5.77D-01  1.17D+00
                    CP:  1.15D+00  1.16D+00  9.75D-01  1.34D+00  9.79D-01
                    CP:  1.13D+00  1.20D+00  1.37D+00  1.12D+00
 E= -542.474400286499     Delta-E=        0.000000000002 Rises=F Damp=F
 DIIS: error= 2.36D-08 at cycle  15 NSaved=  15.
 NSaved=15 IEnMin=14 EnMin= -542.474400286501     IErMin=15 ErrMin= 2.36D-08
 ErrMax= 2.36D-08  0.00D+00 EMaxC= 1.00D-01 BMatC= 6.78D-14 BMatP= 6.77D-13
 IDIUse=1 WtCom= 1.00D+00 WtEn= 0.00D+00
 Coeff-Com: -0.670D-06 0.145D-05 0.126D-06-0.452D-05-0.242D-04-0.434D-04
 Coeff-Com:  0.363D-04 0.326D-03 0.127D-02 0.398D-03-0.111D-01-0.233D-01
 Coeff-Com: -0.377D-01 0.214D+00 0.856D+00
 Coeff:     -0.670D-06 0.145D-05 0.126D-06-0.452D-05-0.242D-04-0.434D-04
 Coeff:      0.363D-04 0.326D-03 0.127D-02 0.398D-03-0.111D-01-0.233D-01
 Coeff:     -0.377D-01 0.214D+00 0.856D+00
 Gap=     0.276 Goal=   None    Shift=    0.000
 RMSDP=5.87D-09 MaxDP=6.07D-07 DE= 1.82D-12 OVMax= 2.64D-07

 SCF Done:  E(RCAM-B3LYP) =  -542.474400286     A.U. after   15 cycles
            NFock= 15  Conv=0.59D-08     -V/T= 2.0030
 KE= 5.408723896157D+02 PE=-2.462102251816D+03 EE= 7.814904235542D+02
 Leave Link  502 at Tue Nov 22 10:46:48 2022, MaxMem=   671088640 cpu:             521.0 elap:              10.5
 (Enter /shared/gaussian/g16.b01/AVX2/g16/l601.exe)
 Copying SCF densities to generalized density rwf, IOpCl= 0 IROHF=0.

 **********************************************************************

            Population analysis using the SCF Density.

 **********************************************************************

 Alpha  occ. eigenvalues --  -19.16614 -14.45293 -14.45013 -14.43540 -14.38994
 Alpha  occ. eigenvalues --  -14.38052 -10.39319 -10.36314 -10.32779 -10.31376
 Alpha  occ. eigenvalues --  -10.26657  -1.14916  -1.12237  -1.10375  -1.00995
 Alpha  occ. eigenvalues --   -1.00161  -0.96865  -0.85271  -0.76193  -0.74931
 Alpha  occ. eigenvalues --   -0.70673  -0.68978  -0.63300  -0.62973  -0.60183
 Alpha  occ. eigenvalues --   -0.56901  -0.56449  -0.53966  -0.51332  -0.50879
 Alpha  occ. eigenvalues --   -0.49620  -0.47377  -0.39399  -0.38793  -0.36130
 Alpha  occ. eigenvalues --   -0.35339  -0.34374  -0.33459  -0.27149
 Alpha virt. eigenvalues --    0.00442   0.02328   0.02980   0.03341   0.04376
 Alpha virt. eigenvalues --    0.05419   0.06288   0.06595   0.07556   0.08290
 Alpha virt. eigenvalues --    0.09530   0.09654   0.10170   0.11684   0.12431
 Alpha virt. eigenvalues --    0.13923   0.14120   0.14532   0.15110   0.16097
 Alpha virt. eigenvalues --    0.16893   0.17898   0.18989   0.19642   0.19674
 Alpha virt. eigenvalues --    0.20273   0.21088   0.21153   0.21923   0.22270
 Alpha virt. eigenvalues --    0.23062   0.23586   0.23992   0.25006   0.25381
 Alpha virt. eigenvalues --    0.25744   0.26537   0.27135   0.27590   0.28553
 Alpha virt. eigenvalues --    0.28910   0.29165   0.29753   0.30979   0.31701
 Alpha virt. eigenvalues --    0.32602   0.33539   0.34725   0.35279   0.35901
 Alpha virt. eigenvalues --    0.36214   0.37322   0.38199   0.39358   0.40220
 Alpha virt. eigenvalues --    0.41210   0.43292   0.45519   0.45662   0.47101
 Alpha virt. eigenvalues --    0.48780   0.51958   0.56048   0.57193   0.58572
 Alpha virt. eigenvalues --    0.59677   0.62908   0.63331   0.63688   0.64234
 Alpha virt. eigenvalues --    0.65545   0.69031   0.70929   0.72261   0.72478
 Alpha virt. eigenvalues --    0.75764   0.75933   0.78076   0.80961   0.81746
 Alpha virt. eigenvalues --    0.83207   0.83862   0.85127   0.85346   0.87720
 Alpha virt. eigenvalues --    0.88396   0.90796   0.91566   0.92020   0.93429
 Alpha virt. eigenvalues --    0.94963   0.95241   0.95857   0.97522   0.98573
 Alpha virt. eigenvalues --    1.00726   1.02352   1.03319   1.06492   1.06568
 Alpha virt. eigenvalues --    1.07431   1.12752   1.13491   1.14856   1.17060
 Alpha virt. eigenvalues --    1.17085   1.21325   1.22098   1.22368   1.23614
 Alpha virt. eigenvalues --    1.25722   1.28804   1.28882   1.30802   1.32037
 Alpha virt. eigenvalues --    1.33107   1.34918   1.39454   1.40054   1.43971
 Alpha virt. eigenvalues --    1.48021   1.57277   1.59033   1.62750   1.66986
 Alpha virt. eigenvalues --    1.67992   1.70394   1.71765   1.73449   1.74822
 Alpha virt. eigenvalues --    1.75186   1.77321   1.79384   1.79445   1.81641
 Alpha virt. eigenvalues --    1.85731   1.87878   1.89531   1.90285   1.90323
 Alpha virt. eigenvalues --    1.93996   1.97245   1.99366   2.08435   2.08720
 Alpha virt. eigenvalues --    2.11346   2.17795   2.21664   2.24121   2.26505
 Alpha virt. eigenvalues --    2.27180   2.30605   2.32710   2.34337   2.36168
 Alpha virt. eigenvalues --    2.39095   2.40779   2.50387   2.52757   2.58599
 Alpha virt. eigenvalues --    2.61191   2.61954   2.61990   2.64344   2.66493
 Alpha virt. eigenvalues --    2.71032   2.73834   2.76020   2.78041   2.81367
 Alpha virt. eigenvalues --    2.85396   2.85646   2.86912   2.89017   2.90468
 Alpha virt. eigenvalues --    2.91806   2.93864   2.93971   2.95539   2.98138
 Alpha virt. eigenvalues --    2.98619   3.00081   3.04640   3.06349   3.08071
 Alpha virt. eigenvalues --    3.12559   3.13216   3.15960   3.31257   3.36101
 Alpha virt. eigenvalues --    3.43422   3.46616   3.50949   3.53986   3.58318
 Alpha virt. eigenvalues --    3.60130   3.64443   3.69951   3.73217   3.77188
 Alpha virt. eigenvalues --    3.80257   3.88714   3.91755   3.92461   3.93828
 Alpha virt. eigenvalues --    4.00985   4.01456   4.02327   4.23859   4.54725
 Alpha virt. eigenvalues --    4.58867   4.73976   4.80904   4.82871   4.92579
 Alpha virt. eigenvalues --    5.02656   5.15035   5.24221   5.31193   5.34346
 Alpha virt. eigenvalues --    5.46360   5.88551  23.79650  23.92558  23.99443
 Alpha virt. eigenvalues --   24.04513  24.15502  35.58326  35.65220  35.73764
 Alpha virt. eigenvalues --   35.77807  35.81769  50.12661
          Condensed to atoms (all electrons):
               1          2          3          4          5          6
     1  N    6.567933   0.226402   0.012417  -0.259969   0.002183  -0.000455
     2  C    0.226402   5.541409   0.231182   0.107064   0.315366   0.016010
     3  N    0.012417   0.231182   6.712153   0.088077  -0.435670   0.019679
     4  C   -0.259969   0.107064   0.088077  10.019276  -1.646585  -0.152555
     5  C    0.002183   0.315366  -0.435670  -1.646585   8.074492   0.496978
     6  O   -0.000455   0.016010   0.019679  -0.152555   0.496978   8.106663
     7  N   -0.004067   0.003551   0.020775  -0.454383   0.363184  -0.106504
     8  C    0.012039  -0.105518   0.005761   0.369538  -0.395087   0.021608
     9  N    0.000896  -0.002193   0.000552   0.018861  -0.021611   0.000778
    10  N   -0.041017   0.007951  -0.000008   0.075246  -0.102895  -0.002147
    11  C    0.487733  -0.923184   0.615360  -2.497967  -0.689793  -0.067144
    12  H   -0.085102   0.450977  -0.064000   0.036460   0.009183  -0.000041
    13  H    0.000235  -0.000389  -0.001350   0.087322  -0.061564   0.018400
    14  H    0.000077   0.000192  -0.000024  -0.005689   0.009268  -0.000052
    15  H   -0.000228   0.000007   0.000005   0.004550  -0.005735   0.000045
    16  H    0.359742  -0.024350  -0.001208   0.039186   0.004479  -0.000017
               7          8          9         10         11         12
     1  N   -0.004067   0.012039   0.000896  -0.041017   0.487733  -0.085102
     2  C    0.003551  -0.105518  -0.002193   0.007951  -0.923184   0.450977
     3  N    0.020775   0.005761   0.000552  -0.000008   0.615360  -0.064000
     4  C   -0.454383   0.369538   0.018861   0.075246  -2.497967   0.036460
     5  C    0.363184  -0.395087  -0.021611  -0.102895  -0.689793   0.009183
     6  O   -0.106504   0.021608   0.000778  -0.002147  -0.067144  -0.000041
     7  N    7.357430  -0.054615  -0.181338  -0.074972   0.180639   0.000169
     8  C   -0.054615   5.531604   0.448855   0.445317  -0.604260  -0.001010
     9  N   -0.181338   0.448855   6.713327  -0.173958  -0.029519   0.000009
    10  N   -0.074972   0.445317  -0.173958   6.632106   0.466636   0.000190
    11  C    0.180639  -0.604260  -0.029519   0.466636   9.252776  -0.000744
    12  H    0.000169  -0.001010   0.000009   0.000190  -0.000744   0.516737
    13  H    0.308941  -0.017442  -0.003177   0.006806  -0.013738  -0.000000
    14  H    0.011892  -0.040085   0.358867   0.012181   0.006303   0.000000
    15  H    0.009405  -0.011675   0.362143   0.009132  -0.000401  -0.000000
    16  H   -0.000034  -0.001039  -0.000000   0.005932  -0.052891   0.001482
              13         14         15         16
     1  N    0.000235   0.000077  -0.000228   0.359742
     2  C   -0.000389   0.000192   0.000007  -0.024350
     3  N   -0.001350  -0.000024   0.000005  -0.001208
     4  C    0.087322  -0.005689   0.004550   0.039186
     5  C   -0.061564   0.009268  -0.005735   0.004479
     6  O    0.018400  -0.000052   0.000045  -0.000017
     7  N    0.308941   0.011892   0.009405  -0.000034
     8  C   -0.017442  -0.040085  -0.011675  -0.001039
     9  N   -0.003177   0.358867   0.362143  -0.000000
    10  N    0.006806   0.012181   0.009132   0.005932
    11  C   -0.013738   0.006303  -0.000401  -0.052891
    12  H   -0.000000   0.000000  -0.000000   0.001482
    13  H    0.373909   0.003846   0.000073   0.000001
    14  H    0.003846   0.389181  -0.013661   0.000001
    15  H    0.000073  -0.013661   0.354773   0.000004
    16  H    0.000001   0.000001   0.000004   0.366063
 Mulliken charges:
               1
     1  N   -0.278819
     2  C    0.155525
     3  N   -0.203699
     4  C    0.171568
     5  C    0.083809
     6  O   -0.351245
     7  N   -0.380075
     8  C    0.396008
     9  N   -0.492493
    10  N   -0.266501
    11  C   -0.129807
    12  H    0.135689
    13  H    0.298127
    14  H    0.267701
    15  H    0.291563
    16  H    0.302650
 Sum of Mulliken charges =  -0.00000
 Mulliken charges with hydrogens summed into heavy atoms:
               1
     1  N    0.023830
     2  C    0.291214
     3  N   -0.203699
     4  C    0.171568
     5  C    0.083809
     6  O   -0.351245
     7  N   -0.081948
     8  C    0.396008
     9  N    0.066771
    10  N   -0.266501
    11  C   -0.129807
 Electronic spatial extent (au):  <R**2>=           1506.8109
 Charge=             -0.0000 electrons
 Dipole moment (field-independent basis, Debye):
    X=             -3.0817    Y=             -6.2669    Z=              0.0000  Tot=              6.9837
 Quadrupole moment (field-independent basis, Debye-Ang):
   XX=            -54.7553   YY=            -57.8781   ZZ=            -65.2131
   XY=            -17.6686   XZ=              0.0000   YZ=             -0.0000
 Traceless Quadrupole moment (field-independent basis, Debye-Ang):
   XX=              4.5268   YY=              1.4041   ZZ=             -5.9309
   XY=            -17.6686   XZ=              0.0000   YZ=             -0.0000
 Octapole moment (field-independent basis, Debye-Ang**2):
  XXX=            -44.2691  YYY=            -79.9431  ZZZ=              0.0000  XYY=              1.5263
  XXY=            -15.9725  XXZ=             -0.0000  XZZ=              3.4491  YZZ=              0.6382
  YYZ=             -0.0000  XYZ=              0.0000
 Hexadecapole moment (field-independent basis, Debye-Ang**3):
 XXXX=           -714.5390 YYYY=           -915.7410 ZZZZ=            -67.7050 XXXY=             -5.8704
 XXXZ=              0.0000 YYYX=             26.0035 YYYZ=              0.0000 ZZZX=              0.0000
 ZZZY=             -0.0000 XXYY=           -266.8839 XXZZ=           -153.8329 YYZZ=           -212.3216
 XXYZ=             -0.0000 YYXZ=              0.0000 ZZXY=             43.8262
 N-N= 5.972650383593D+02 E-N=-2.462102252747D+03  KE= 5.408723896157D+02
 No NMR shielding tensors so no spin-rotation constants.
 Leave Link  601 at Tue Nov 22 10:46:49 2022, MaxMem=   671088640 cpu:               7.6 elap:               0.2
 (Enter /shared/gaussian/g16.b01/AVX2/g16/l701.exe)
 ... and contract with generalized density number  0.
 Compute integral first derivatives.
 Leave Link  701 at Tue Nov 22 10:46:49 2022, MaxMem=   671088640 cpu:               6.1 elap:               0.1
 (Enter /shared/gaussian/g16.b01/AVX2/g16/l702.exe)
 L702 exits ... SP integral derivatives will be done elsewhere.
 Leave Link  702 at Tue Nov 22 10:46:49 2022, MaxMem=   671088640 cpu:               0.6 elap:               0.0
 (Enter /shared/gaussian/g16.b01/AVX2/g16/l703.exe)
 Integral derivatives from FoFJK, PRISM(SPDF).
 Compute integral first derivatives, UseDBF=F ICtDFT=           0.
 Calling FoFJK, ICntrl=      2127 FMM=F ISym2X=0 I1Cent= 0 IOpClX= 0 NMat=1 NMatS=1 NMatT=0.
 FoFJK:  IHMeth= 1 ICntrl=    2127 DoSepK=T KAlg= 0 I1Cent=           0 FoldK=F
 IRaf=         1 NMat=       1 IRICut=       1 DoRegI=T DoRafI=F ISym2E= 0 IDoP0=0 IntGTp=1.
 FoFCou: FMM=F IPFlag=           0 FMFlag=      100000 FMFlg1=         800
         NFxFlg=           0 DoJE=F BraDBF=F KetDBF=F FulRan=T
         wScrn=  0.000000 ICntrl=      2527 IOpCl=  0 I1Cent=           0 NGrid=           0
         NMat0=    1 NMatS0=      1 NMatT0=    0 NMatD0=    1 NMtDS0=    0 NMtDT0=    0
 Symmetry not used in FoFCou.
 Leave Link  703 at Tue Nov 22 10:46:51 2022, MaxMem=   671088640 cpu:              92.7 elap:               1.9
 (Enter /shared/gaussian/g16.b01/AVX2/g16/l716.exe)
 Dipole        =-1.21243721D+00-2.46560613D+00 6.15420751D-15
 -------------------------------------------------------------------
 Center     Atomic                   Forces (Hartrees/Bohr)
 Number     Number              X              Y              Z
 -------------------------------------------------------------------
      1        7           0.000156278   -0.000108827    0.000000000
      2        6          -0.000036256    0.000425996   -0.000000000
      3        7          -0.000174274   -0.000077998    0.000000000
      4        6           0.000024415   -0.000126359   -0.000000000
      5        6           0.000174496    0.000050120    0.000000000
      6        8          -0.000008296    0.000023997    0.000000000
      7        7           0.000151817   -0.000003568    0.000000000
      8        6          -0.000361869    0.000023304    0.000000000
      9        7           0.000061249   -0.000097986   -0.000000000
     10        7           0.000188703   -0.000017223   -0.000000000
     11        6          -0.000149408   -0.000105075   -0.000000000
     12        1          -0.000090159    0.000046991    0.000000000
     13        1           0.000046084   -0.000035062    0.000000000
     14        1           0.000068635   -0.000006881    0.000000000
     15        1          -0.000039013   -0.000014965    0.000000000
     16        1          -0.000012402    0.000023538   -0.000000000
 -------------------------------------------------------------------
 Cartesian Forces:  Max     0.000425996 RMS     0.000108374
 Leave Link  716 at Tue Nov 22 10:46:51 2022, MaxMem=   671088640 cpu:               0.7 elap:               0.0
 (Enter /shared/gaussian/g16.b01/AVX2/g16/l103.exe)

 GradGradGradGradGradGradGradGradGradGradGradGradGradGradGradGradGradGrad
 Berny optimization.
 FormGI is forming the generalized inverse of G from B-inverse, IUseBI=4.
 Internal  Forces:  Max     0.000211053 RMS     0.000071423
 Search for a local minimum.
 Step number   1 out of a maximum of   89
 All quantities printed in internal units (Hartrees-Bohrs-Radians)
 RMS Force = .71423D-04 SwitMx=.10000D-02 MixMth= 2
 Mixed Optimization -- En-DIIS/RFO-DIIS
 Second derivative matrix not updated -- first step.
 ITU=  0
     Eigenvalues ---    0.01485   0.01665   0.01762   0.01948   0.02064
     Eigenvalues ---    0.02153   0.02197   0.02254   0.02254   0.02282
     Eigenvalues ---    0.02343   0.02464   0.02529   0.16000   0.16000
     Eigenvalues ---    0.16000   0.16000   0.16000   0.22706   0.23486
     Eigenvalues ---    0.24747   0.25000   0.25000   0.25000   0.25000
     Eigenvalues ---    0.36093   0.38687   0.39475   0.41805   0.45578
     Eigenvalues ---    0.45831   0.46402   0.46837   0.47133   0.48763
     Eigenvalues ---    0.50304   0.51088   0.52992   0.53463   0.64523
     Eigenvalues ---    0.65049   1.00899
 RFO step:  Lambda=-1.26826268D-06 EMin= 1.48471070D-02
 Linear search not attempted -- first point.
 Iteration  1 RMS(Cart)=  0.00038734 RMS(Int)=  0.00000006
 Iteration  2 RMS(Cart)=  0.00000007 RMS(Int)=  0.00000001
 ITry= 1 IFail=0 DXMaxC= 1.41D-03 DCOld= 1.00D+10 DXMaxT= 3.00D-01 DXLimC= 3.00D+00 Rises=F
 Variable       Old X    -DE/DX   Delta X   Delta X   Delta X     New X
                                 (Linear)    (Quad)   (Total)
    R1        2.60709   0.00021   0.00000   0.00044   0.00044   2.60753
    R2        2.57512   0.00009   0.00000   0.00016   0.00016   2.57529
    R3        1.90380   0.00000   0.00000   0.00000   0.00000   1.90381
    R4        2.44982  -0.00005   0.00000  -0.00007  -0.00007   2.44976
    R5        2.03937   0.00010   0.00000   0.00027   0.00027   2.03964
    R6        2.60204   0.00019   0.00000   0.00038   0.00038   2.60242
    R7        2.71068   0.00018   0.00000   0.00044   0.00044   2.71112
    R8        2.61374   0.00002   0.00000   0.00002   0.00002   2.61377
    R9        2.28281   0.00001   0.00000   0.00001   0.00001   2.28281
   R10        2.69991   0.00010   0.00000   0.00027   0.00027   2.70017
   R11        2.58254   0.00019   0.00000   0.00037   0.00037   2.58291
   R12        1.91022   0.00006   0.00000   0.00012   0.00012   1.91034
   R13        2.56524   0.00014   0.00000   0.00025   0.00025   2.56549
   R14        2.46121  -0.00007   0.00000  -0.00011  -0.00011   2.46110
   R15        1.89574   0.00007   0.00000   0.00014   0.00014   1.89588
   R16        1.89899   0.00004   0.00000   0.00008   0.00008   1.89908
   R17        2.55811   0.00006   0.00000   0.00010   0.00010   2.55821
    A1        1.86171   0.00015   0.00000   0.00067   0.00067   1.86239
    A2        2.22944  -0.00010   0.00000  -0.00050  -0.00050   2.22895
    A3        2.19203  -0.00005   0.00000  -0.00018  -0.00018   2.19185
    A4        1.96572  -0.00021   0.00000  -0.00092  -0.00092   1.96480
    A5        2.12416   0.00007   0.00000   0.00026   0.00026   2.12442
    A6        2.19330   0.00014   0.00000   0.00067   0.00067   2.19397
    A7        1.82927   0.00017   0.00000   0.00072   0.00072   1.82999
    A8        2.27873   0.00000   0.00000   0.00002   0.00002   2.27875
    A9        1.93374  -0.00005   0.00000  -0.00023  -0.00023   1.93351
   A10        2.07072   0.00005   0.00000   0.00021   0.00021   2.07093
   A11        2.29055  -0.00001   0.00000  -0.00007  -0.00007   2.29048
   A12        1.91391  -0.00003   0.00000  -0.00008  -0.00008   1.91383
   A13        2.07872   0.00004   0.00000   0.00015   0.00015   2.07888
   A14        2.20624  -0.00005   0.00000  -0.00018  -0.00018   2.20606
   A15        1.97708   0.00004   0.00000   0.00019   0.00019   1.97727
   A16        2.09986   0.00001   0.00000  -0.00001  -0.00001   2.09985
   A17        2.04429  -0.00010   0.00000  -0.00039  -0.00039   2.04390
   A18        2.15328   0.00002   0.00000   0.00007   0.00007   2.15336
   A19        2.08561   0.00008   0.00000   0.00032   0.00032   2.08593
   A20        2.14453  -0.00002   0.00000  -0.00009  -0.00009   2.14443
   A21        2.05285  -0.00000   0.00000  -0.00003  -0.00003   2.05282
   A22        2.08580   0.00002   0.00000   0.00012   0.00012   2.08593
   A23        1.96912   0.00008   0.00000   0.00025   0.00025   1.96937
   A24        1.83433  -0.00006   0.00000  -0.00024  -0.00024   1.83409
   A25        2.19576   0.00012   0.00000   0.00051   0.00051   2.19627
   A26        2.25310  -0.00006   0.00000  -0.00027  -0.00027   2.25283
    D1        0.00000  -0.00000   0.00000  -0.00000  -0.00000   0.00000
    D2        3.14159   0.00000   0.00000   0.00000   0.00000   3.14159
    D3        3.14159  -0.00000   0.00000  -0.00000   0.00000   3.14159
    D4        0.00000   0.00000   0.00000   0.00000   0.00000   0.00000
    D5        0.00000   0.00000   0.00000   0.00000  -0.00000   0.00000
    D6        3.14159   0.00000   0.00000   0.00000   0.00000   3.14159
    D7        3.14159   0.00000   0.00000   0.00000   0.00000   3.14159
    D8        0.00000   0.00000   0.00000   0.00000   0.00000   0.00000
    D9        0.00000   0.00000   0.00000   0.00000   0.00000   0.00000
   D10        3.14159  -0.00000   0.00000  -0.00000   0.00000   3.14159
   D11        3.14159  -0.00000   0.00000  -0.00000   0.00000   3.14159
   D12        0.00000  -0.00000   0.00000  -0.00000  -0.00000   0.00000
   D13        0.00000  -0.00000   0.00000  -0.00000  -0.00000   0.00000
   D14        3.14159   0.00000   0.00000   0.00000   0.00000   3.14159
   D15        3.14159  -0.00000   0.00000  -0.00000   0.00000   3.14159
   D16        0.00000   0.00000   0.00000   0.00000   0.00000   0.00000
   D17        0.00000  -0.00000   0.00000  -0.00000   0.00000   0.00000
   D18        3.14159  -0.00000   0.00000  -0.00000   0.00000   3.14159
   D19        3.14159  -0.00000   0.00000  -0.00000   0.00000   3.14159
   D20        0.00000  -0.00000   0.00000  -0.00000  -0.00000   0.00000
   D21        0.00000  -0.00000   0.00000  -0.00000  -0.00000   0.00000
   D22        3.14159  -0.00000   0.00000  -0.00000   0.00000   3.14159
   D23        3.14159   0.00000   0.00000   0.00000   0.00000   3.14159
   D24        0.00000  -0.00000   0.00000  -0.00000  -0.00000   0.00000
   D25        3.14159  -0.00000   0.00000  -0.00000   0.00000   3.14159
   D26        0.00000   0.00000   0.00000   0.00000   0.00000   0.00000
   D27        0.00000  -0.00000   0.00000  -0.00000   0.00000   0.00000
   D28        3.14159   0.00000   0.00000   0.00000   0.00000   3.14159
   D29        0.00000   0.00000   0.00000   0.00000  -0.00000   0.00000
   D30        3.14159   0.00000   0.00000   0.00000   0.00000   3.14159
   D31        3.14159  -0.00000   0.00000  -0.00000   0.00000   3.14159
   D32        0.00000  -0.00000   0.00000  -0.00000  -0.00000   0.00000
   D33        0.00000   0.00000   0.00000   0.00000  -0.00000   0.00000
   D34        3.14159   0.00000   0.00000   0.00000   0.00000   3.14159
   D35        3.14159  -0.00000   0.00000  -0.00000   0.00000   3.14159
   D36        0.00000  -0.00000   0.00000  -0.00000   0.00000   0.00000
         Item               Value     Threshold  Converged?
 Maximum Force            0.000211     0.000450     YES
 RMS     Force            0.000071     0.000300     YES
 Maximum Displacement     0.001409     0.001800     YES
 RMS     Displacement     0.000387     0.001200     YES
 Predicted change in Energy=-6.341284D-07
 Optimization completed.
    -- Stationary point found.
                           ----------------------------
                           !   Optimized Parameters   !
                           ! (Angstroms and Degrees)  !
 --------------------------                            --------------------------
 ! Name  Definition              Value          Derivative Info.                !
 --------------------------------------------------------------------------------
 ! R1    R(1,2)                  1.3796         -DE/DX =    0.0002              !
 ! R2    R(1,11)                 1.3627         -DE/DX =    0.0001              !
 ! R3    R(1,16)                 1.0074         -DE/DX =    0.0                 !
 ! R4    R(2,3)                  1.2964         -DE/DX =   -0.0001              !
 ! R5    R(2,12)                 1.0792         -DE/DX =    0.0001              !
 ! R6    R(3,4)                  1.3769         -DE/DX =    0.0002              !
 ! R7    R(4,5)                  1.4344         -DE/DX =    0.0002              !
 ! R8    R(4,11)                 1.3831         -DE/DX =    0.0                 !
 ! R9    R(5,6)                  1.208          -DE/DX =    0.0                 !
 ! R10   R(5,7)                  1.4287         -DE/DX =    0.0001              !
 ! R11   R(7,8)                  1.3666         -DE/DX =    0.0002              !
 ! R12   R(7,13)                 1.0108         -DE/DX =    0.0001              !
 ! R13   R(8,9)                  1.3575         -DE/DX =    0.0001              !
 ! R14   R(8,10)                 1.3024         -DE/DX =   -0.0001              !
 ! R15   R(9,14)                 1.0032         -DE/DX =    0.0001              !
 ! R16   R(9,15)                 1.0049         -DE/DX =    0.0                 !
 ! R17   R(10,11)                1.3537         -DE/DX =    0.0001              !
 ! A1    A(2,1,11)             106.6683         -DE/DX =    0.0001              !
 ! A2    A(2,1,16)             127.7376         -DE/DX =   -0.0001              !
 ! A3    A(11,1,16)            125.5941         -DE/DX =    0.0                 !
 ! A4    A(1,2,3)              112.6275         -DE/DX =   -0.0002              !
 ! A5    A(1,2,12)             121.7054         -DE/DX =    0.0001              !
 ! A6    A(3,2,12)             125.6671         -DE/DX =    0.0001              !
 ! A7    A(2,3,4)              104.8094         -DE/DX =    0.0002              !
 ! A8    A(3,4,5)              130.5614         -DE/DX =    0.0                 !
 ! A9    A(3,4,11)             110.7954         -DE/DX =   -0.0001              !
 ! A10   A(5,4,11)             118.6433         -DE/DX =    0.0001              !
 ! A11   A(4,5,6)              131.2387         -DE/DX =    0.0                 !
 ! A12   A(4,5,7)              109.6591         -DE/DX =    0.0                 !
 ! A13   A(6,5,7)              119.1021         -DE/DX =    0.0                 !
 ! A14   A(5,7,8)              126.4085         -DE/DX =   -0.0001              !
 ! A15   A(5,7,13)             113.2786         -DE/DX =    0.0                 !
 ! A16   A(8,7,13)             120.3129         -DE/DX =    0.0                 !
 ! A17   A(7,8,9)              117.1291         -DE/DX =   -0.0001              !
 ! A18   A(7,8,10)             123.3741         -DE/DX =    0.0                 !
 ! A19   A(9,8,10)             119.4968         -DE/DX =    0.0001              !
 ! A20   A(8,9,14)             122.8725         -DE/DX =    0.0                 !
 ! A21   A(8,9,15)             117.6199         -DE/DX =    0.0                 !
 ! A22   A(14,9,15)            119.5077         -DE/DX =    0.0                 !
 ! A23   A(8,10,11)            112.8221         -DE/DX =    0.0001              !
 ! A24   A(1,11,4)             105.0994         -DE/DX =   -0.0001              !
 ! A25   A(1,11,10)            125.8076         -DE/DX =    0.0001              !
 ! A26   A(4,11,10)            129.0929         -DE/DX =   -0.0001              !
 ! D1    D(11,1,2,3)             0.0            -DE/DX =    0.0                 !
 ! D2    D(11,1,2,12)          180.0            -DE/DX =    0.0                 !
 ! D3    D(16,1,2,3)           180.0            -DE/DX =    0.0                 !
 ! D4    D(16,1,2,12)            0.0            -DE/DX =    0.0                 !
 ! D5    D(2,1,11,4)             0.0            -DE/DX =    0.0                 !
 ! D6    D(2,1,11,10)          180.0            -DE/DX =    0.0                 !
 ! D7    D(16,1,11,4)          180.0            -DE/DX =    0.0                 !
 ! D8    D(16,1,11,10)           0.0            -DE/DX =    0.0                 !
 ! D9    D(1,2,3,4)              0.0            -DE/DX =    0.0                 !
 ! D10   D(12,2,3,4)           180.0            -DE/DX =    0.0                 !
 ! D11   D(2,3,4,5)            180.0            -DE/DX =    0.0                 !
 ! D12   D(2,3,4,11)             0.0            -DE/DX =    0.0                 !
 ! D13   D(3,4,5,6)              0.0            -DE/DX =    0.0                 !
 ! D14   D(3,4,5,7)            180.0            -DE/DX =    0.0                 !
 ! D15   D(11,4,5,6)           180.0            -DE/DX =    0.0                 !
 ! D16   D(11,4,5,7)             0.0            -DE/DX =    0.0                 !
 ! D17   D(3,4,11,1)             0.0            -DE/DX =    0.0                 !
 ! D18   D(3,4,11,10)          180.0            -DE/DX =    0.0                 !
 ! D19   D(5,4,11,1)           180.0            -DE/DX =    0.0                 !
 ! D20   D(5,4,11,10)            0.0            -DE/DX =    0.0                 !
 ! D21   D(4,5,7,8)              0.0            -DE/DX =    0.0                 !
 ! D22   D(4,5,7,13)           180.0            -DE/DX =    0.0                 !
 ! D23   D(6,5,7,8)            180.0            -DE/DX =    0.0                 !
 ! D24   D(6,5,7,13)             0.0            -DE/DX =    0.0                 !
 ! D25   D(5,7,8,9)            180.0            -DE/DX =    0.0                 !
 ! D26   D(5,7,8,10)             0.0            -DE/DX =    0.0                 !
 ! D27   D(13,7,8,9)             0.0            -DE/DX =    0.0                 !
 ! D28   D(13,7,8,10)          180.0            -DE/DX =    0.0                 !
 ! D29   D(7,8,9,14)             0.0            -DE/DX =    0.0                 !
 ! D30   D(7,8,9,15)           180.0            -DE/DX =    0.0                 !
 ! D31   D(10,8,9,14)          180.0            -DE/DX =    0.0                 !
 ! D32   D(10,8,9,15)            0.0            -DE/DX =    0.0                 !
 ! D33   D(7,8,10,11)            0.0            -DE/DX =    0.0                 !
 ! D34   D(9,8,10,11)          180.0            -DE/DX =    0.0                 !
 ! D35   D(8,10,11,1)          180.0            -DE/DX =    0.0                 !
 ! D36   D(8,10,11,4)            0.0            -DE/DX =    0.0                 !
 --------------------------------------------------------------------------------
 Lowest energy point so far.  Saving SCF results.
 Largest change from initial coordinates is atom    0       0.000 Angstoms.
 GradGradGradGradGradGradGradGradGradGradGradGradGradGradGradGradGradGrad

 Leave Link  103 at Tue Nov 22 10:46:51 2022, MaxMem=   671088640 cpu:               1.1 elap:               0.0
 (Enter /shared/gaussian/g16.b01/AVX2/g16/l202.exe)
                          Input orientation:                          
 ---------------------------------------------------------------------
 Center     Atomic      Atomic             Coordinates (Angstroms)
 Number     Number       Type             X           Y           Z
 ---------------------------------------------------------------------
      1          7           0       -2.164547    0.729374    0.000000
      2          6           0       -1.823669    2.066210    0.000000
      3          7           0       -0.540931    2.253857    0.000000
      4          6           0        0.000000    0.987621    0.000000
      5          6           0        1.368570    0.557966    0.000000
      6          8           0        2.400416    1.186125    0.000000
      7          7           0        1.424157   -0.869681    0.000000
      8          6           0        0.356682   -1.723002    0.000000
      9          7           0        0.627528   -3.053172    0.000000
     10          7           0       -0.882076   -1.320799    0.000000
     11          6           0       -0.996160    0.028079    0.000000
     12          1           0       -2.573196    2.842649    0.000000
     13          1           0        2.367552   -1.232740    0.000000
     14          1           0        1.561780   -3.418613    0.000000
     15          1           0       -0.152003   -3.687334    0.000000
     16          1           0       -3.088910    0.328741    0.000000
 ---------------------------------------------------------------------
                    Distance matrix (angstroms):
                    1          2          3          4          5
     1  N    0.000000
     2  C    1.379612   0.000000
     3  N    2.227146   1.296390   0.000000
     4  C    2.179898   2.118755   1.376939   0.000000
     5  C    3.537272   3.530608   2.553868   1.434429   0.000000
     6  O    4.587756   4.314794   3.129149   2.408610   1.208011
     7  N    3.928839   4.378108   3.690266   2.340469   1.428729
     8  C    3.517207   4.371734   4.076900   2.733990   2.495342
     9  N    4.701419   5.675953   5.434138   4.089230   3.686389
    10  N    2.418252   3.515455   3.590898   2.471206   2.931751
    11  C    1.362697   2.199716   2.271854   1.383133   2.423371
    12  H    2.152423   1.079189   2.115840   3.172139   4.556018
    13  H    4.938604   5.333798   4.540444   3.245814   2.050510
    14  H    5.575958   6.445506   6.049654   4.674832   3.981270
    15  H    4.853622   5.991472   5.953908   4.677425   4.509403
    16  H    1.007449   2.149333   3.193473   3.158400   4.463370
                    6          7          8          9         10
     6  O    0.000000
     7  N    2.275834   0.000000
     8  C    3.555259   1.366623   0.000000
     9  N    4.595081   2.324274   1.357464   0.000000
    10  N    4.130305   2.349940   1.302416   2.297830   0.000000
    11  C    3.588565   2.581455   2.212796   3.482882   1.353694
    12  H    5.242222   5.455293   5.424883   6.708602   4.493794
    13  H    2.419088   1.010844   2.069772   2.518265   3.250821
    14  H    4.680483   2.552645   2.080230   1.003182   3.220754
    15  H    5.501404   3.228537   2.029128   1.004903   2.476589
    16  H    5.555880   4.669474   4.010206   5.024863   2.755195
                   11         12         13         14         15
    11  C    0.000000
    12  H    3.226274   0.000000
    13  H    3.592245   6.404669   0.000000
    14  H    4.292172   7.503428   2.329659   0.000000
    15  H    3.810104   6.964399   3.517554   1.734723   0.000000
    16  H    2.114237   2.566261   5.675491   5.972569   4.975367
                   16
    16  H    0.000000
 Symmetry turned off by external request.
 Stoichiometry    C5H5N5O
 Framework group  CS[SG(C5H5N5O)]
 Deg. of freedom    29
 Full point group                 CS      NOp   2
 Rotational constants (GHZ):           1.9392099           1.1222569           0.7108657
 Leave Link  202 at Tue Nov 22 10:46:51 2022, MaxMem=   671088640 cpu:               0.2 elap:               0.0
 (Enter /shared/gaussian/g16.b01/AVX2/g16/l9999.exe)
 1\1\GINC-BAKU1\FOpt\RCAM-B3LYP\6-311+G(d,p)\C5H5N5O1\ROOT\22-Nov-2022\
 0\\#p opt cam-b3lyp/6-311+G(d,p) nosymm\\Guanine\\0,1\N,-2.164547,0.72
 9374,0.\C,-1.823669,2.06621,0.\N,-0.540931,2.253857,0.\C,0.,0.987621,0
 .\C,1.36857,0.557966,0.\O,2.400416,1.186125,0.\N,1.424157,-0.869681,0.
 \C,0.356682,-1.723002,0.\N,0.627528,-3.053172,0.\N,-0.882076,-1.320799
 ,0.\C,-0.99616,0.028079,0.\H,-2.573196,2.842649,0.\H,2.367552,-1.23274
 ,0.\H,1.56178,-3.418613,0.\H,-0.152003,-3.687334,0.\H,-3.08891,0.32874
 1,0.\\Version=ES64L-G16RevB.01\HF=-542.4744003\RMSD=5.869e-09\RMSF=1.0
 84e-04\Dipole=-1.2124372,-2.4656061,0.\Quadrupole=3.3655984,1.0438853,
 -4.4094837,-13.1361359,0.,0.\PG=CS [SG(C5H5N5O1)]\\@


 WE HAVE LEARNED THAT NOTHING IS SIMPLE AND
 RATIONAL EXCEPT WHAT WE OURSELVES HAVE INVENTED;
 THAT GOD THINKS IN TERMS NEITHER OF EUCLID OR RIEMANN; THAT SCIENCE HAS "EXPLAINED" NOTHING;
 THAT THE MORE WE KNOW THE MORE FANTASTIC THE WORLD BECOMES
 AND THE PROFOUNDER THE SURROUNDING DARKNESS.
   --  ALDOUS HUXLEY
 Job cpu time:       0 days  0 hours 11 minutes 18.7 seconds.
 Elapsed time:       0 days  0 hours  0 minutes 14.1 seconds.
 File lengths (MBytes):  RWF=     44 Int=      0 D2E=      0 Chk=      6 Scr=      1
 Normal termination of Gaussian 16 at Tue Nov 22 10:46:51 2022.
