 Entering Gaussian System, Link 0=/shared/gaussian/g16.b01/AVX2/g16/g16
 Initial command:
 /shared/gaussian/g16.b01/AVX2/g16/l1.exe "/scratch/marlene/SCRGAU.104122.Thymine6311-opt/Gau-100532.inp" -scrdir="/scratch/marlene/SCRGAU.104122.Thymine6311-opt/"
 Entering Link 1 = /shared/gaussian/g16.b01/AVX2/g16/l1.exe PID=    100533.
  
 Copyright (c) 1988-2017, Gaussian, Inc.  All Rights Reserved.
  
 This is part of the Gaussian(R) 16 program.  It is based on
 the Gaussian(R) 09 system (copyright 2009, Gaussian, Inc.),
 the Gaussian(R) 03 system (copyright 2003, Gaussian, Inc.),
 the Gaussian(R) 98 system (copyright 1998, Gaussian, Inc.),
 the Gaussian(R) 94 system (copyright 1995, Gaussian, Inc.),
 the Gaussian 92(TM) system (copyright 1992, Gaussian, Inc.),
 the Gaussian 90(TM) system (copyright 1990, Gaussian, Inc.),
 the Gaussian 88(TM) system (copyright 1988, Gaussian, Inc.),
 the Gaussian 86(TM) system (copyright 1986, Carnegie Mellon
 University), and the Gaussian 82(TM) system (copyright 1983,
 Carnegie Mellon University). Gaussian is a federally registered
 trademark of Gaussian, Inc.
  
 This software contains proprietary and confidential information,
 including trade secrets, belonging to Gaussian, Inc.
  
 This software is provided under written license and may be
 used, copied, transmitted, or stored only in accord with that
 written license.
  
 The following legend is applicable only to US Government
 contracts under FAR:
  
                    RESTRICTED RIGHTS LEGEND
  
 Use, reproduction and disclosure by the US Government is
 subject to restrictions as set forth in subparagraphs (a)
 and (c) of the Commercial Computer Software - Restricted
 Rights clause in FAR 52.227-19.
  
 Gaussian, Inc.
 340 Quinnipiac St., Bldg. 40, Wallingford CT 06492
  
  
 ---------------------------------------------------------------
 Warning -- This program may not be used in any manner that
 competes with the business of Gaussian, Inc. or will provide
 assistance to any competitor of Gaussian, Inc.  The licensee
 of this program is prohibited from giving any competitor of
 Gaussian, Inc. access to this program.  By using this program,
 the user acknowledges that Gaussian, Inc. is engaged in the
 business of creating and licensing software in the field of
 computational chemistry and represents and warrants to the
 licensee that it is not a competitor of Gaussian, Inc. and that
 it will not use this program in any manner prohibited above.
 ---------------------------------------------------------------
  

 Cite this work as:
 Gaussian 16, Revision B.01,
 M. J. Frisch, G. W. Trucks, H. B. Schlegel, G. E. Scuseria, 
 M. A. Robb, J. R. Cheeseman, G. Scalmani, V. Barone, 
 G. A. Petersson, H. Nakatsuji, X. Li, M. Caricato, A. V. Marenich, 
 J. Bloino, B. G. Janesko, R. Gomperts, B. Mennucci, H. P. Hratchian, 
 J. V. Ortiz, A. F. Izmaylov, J. L. Sonnenberg, D. Williams-Young, 
 F. Ding, F. Lipparini, F. Egidi, J. Goings, B. Peng, A. Petrone, 
 T. Henderson, D. Ranasinghe, V. G. Zakrzewski, J. Gao, N. Rega, 
 G. Zheng, W. Liang, M. Hada, M. Ehara, K. Toyota, R. Fukuda, 
 J. Hasegawa, M. Ishida, T. Nakajima, Y. Honda, O. Kitao, H. Nakai, 
 T. Vreven, K. Throssell, J. A. Montgomery, Jr., J. E. Peralta, 
 F. Ogliaro, M. J. Bearpark, J. J. Heyd, E. N. Brothers, K. N. Kudin, 
 V. N. Staroverov, T. A. Keith, R. Kobayashi, J. Normand, 
 K. Raghavachari, A. P. Rendell, J. C. Burant, S. S. Iyengar, 
 J. Tomasi, M. Cossi, J. M. Millam, M. Klene, C. Adamo, R. Cammi, 
 J. W. Ochterski, R. L. Martin, K. Morokuma, O. Farkas, 
 J. B. Foresman, and D. J. Fox, Gaussian, Inc., Wallingford CT, 2016.
 
 ******************************************
 Gaussian 16:  ES64L-G16RevB.01 20-Dec-2017
                22-Nov-2022 
 ******************************************
 %nprocshared=52
 Will use up to   52 processors via shared memory.
 %mem=10GB
 %chk=thymine6311-opt.chk
 ----------------------------------------
 #p opt cam-b3lyp/6-311+G(d,p) symm=loose
 ----------------------------------------
 1/18=20,19=15,26=3,38=1/1,3;
 2/9=110,12=2,17=4,18=3,40=1/2;
 3/5=4,6=6,7=111,11=2,25=1,30=1,71=1,74=-40/1,2,3;
 4//1;
 5/5=2,38=5/2;
 6/7=2,8=2,9=2,10=2,28=1/1;
 7//1,2,3,16;
 1/18=20,19=15,26=3/3(2);
 2/9=110/2;
 99//99;
 2/9=110/2;
 3/5=4,6=6,7=111,11=2,25=1,30=1,71=1,74=-40/1,2,3;
 4/5=5,16=3,69=1/1;
 5/5=2,38=5/2;
 7//1,2,3,16;
 1/18=20,19=15,26=3/3(-5);
 2/9=110/2;
 6/7=2,8=2,9=2,10=2,19=2,28=1/1;
 99/9=1/99;
 Leave Link    1 at Tue Nov 22 10:41:22 2022, MaxMem=  1342177280 cpu:               2.7 elap:               0.1
 (Enter /shared/gaussian/g16.b01/AVX2/g16/l101.exe)
 -------
 Thymine
 -------
 Symbolic Z-matrix:
 Charge =  0 Multiplicity = 1
 N                     0.11121  -1.66569   0. 
 C                     1.31609  -1.0272    0. 
 N                     1.21856   0.35944   0. 
 C                     0.        1.04077   0. 
 C                    -1.20335   0.34764   0. 
 C                    -1.13604  -1.02093   0. 
 O                     2.38903  -1.58705   0. 
 O                     0.13172   2.35499   0. 
 H                     0.16572  -2.67104   0. 
 H                     2.09068   0.86428   0. 
 C                    -2.50634   1.09371   0. 
 H                    -2.00432  -1.66046   0. 
 H                    -3.34533   0.39823   0. 
 H                    -2.60166   1.73261   0.88065 
 H                    -2.60166   1.73261  -0.88065 
 
 ITRead=  0  0  0  0  0  0  0  0  0  0  0  0  0  0  0
 MicOpt= -1 -1 -1 -1 -1 -1 -1 -1 -1 -1 -1 -1 -1 -1 -1
 NAtoms=     15 NQM=       15 NQMF=       0 NMMI=      0 NMMIF=      0
                NMic=       0 NMicF=      0.
                    Isotopes and Nuclear Properties:
 (Nuclear quadrupole moments (NQMom) in fm**2, nuclear magnetic moments (NMagM)
  in nuclear magnetons)

  Atom         1           2           3           4           5           6           7           8           9          10
 IAtWgt=          14          12          14          12          12          12          16          16           1           1
 AtmWgt=  14.0030740  12.0000000  14.0030740  12.0000000  12.0000000  12.0000000  15.9949146  15.9949146   1.0078250   1.0078250
 NucSpn=           2           0           2           0           0           0           0           0           1           1
 AtZEff=  -0.0000000  -0.0000000  -0.0000000  -0.0000000  -0.0000000  -0.0000000  -0.0000000  -0.0000000  -0.0000000  -0.0000000
 NQMom=    2.0440000   0.0000000   2.0440000   0.0000000   0.0000000   0.0000000   0.0000000   0.0000000   0.0000000   0.0000000
 NMagM=    0.4037610   0.0000000   0.4037610   0.0000000   0.0000000   0.0000000   0.0000000   0.0000000   2.7928460   2.7928460
 AtZNuc=   7.0000000   6.0000000   7.0000000   6.0000000   6.0000000   6.0000000   8.0000000   8.0000000   1.0000000   1.0000000

  Atom        11          12          13          14          15
 IAtWgt=          12           1           1           1           1
 AtmWgt=  12.0000000   1.0078250   1.0078250   1.0078250   1.0078250
 NucSpn=           0           1           1           1           1
 AtZEff=  -0.0000000  -0.0000000  -0.0000000  -0.0000000  -0.0000000
 NQMom=    0.0000000   0.0000000   0.0000000   0.0000000   0.0000000
 NMagM=    0.0000000   2.7928460   2.7928460   2.7928460   2.7928460
 AtZNuc=   6.0000000   1.0000000   1.0000000   1.0000000   1.0000000
 Leave Link  101 at Tue Nov 22 10:41:22 2022, MaxMem=  1342177280 cpu:              16.7 elap:               0.3
 (Enter /shared/gaussian/g16.b01/AVX2/g16/l103.exe)

 GradGradGradGradGradGradGradGradGradGradGradGradGradGradGradGradGradGrad
 Berny optimization.
 Initialization pass.
                           ----------------------------
                           !    Initial Parameters    !
                           ! (Angstroms and Degrees)  !
 --------------------------                            --------------------------
 ! Name  Definition              Value          Derivative Info.                !
 --------------------------------------------------------------------------------
 ! R1    R(1,2)                  1.3636         estimate D2E/DX2                !
 ! R2    R(1,6)                  1.4041         estimate D2E/DX2                !
 ! R3    R(1,9)                  1.0068         estimate D2E/DX2                !
 ! R4    R(2,3)                  1.3901         estimate D2E/DX2                !
 ! R5    R(2,7)                  1.2102         estimate D2E/DX2                !
 ! R6    R(3,4)                  1.3961         estimate D2E/DX2                !
 ! R7    R(3,10)                 1.0077         estimate D2E/DX2                !
 ! R8    R(4,5)                  1.3887         estimate D2E/DX2                !
 ! R9    R(4,8)                  1.3208         estimate D2E/DX2                !
 ! R10   R(5,6)                  1.3702         estimate D2E/DX2                !
 ! R11   R(5,11)                 1.5015         estimate D2E/DX2                !
 ! R12   R(6,12)                 1.0784         estimate D2E/DX2                !
 ! R13   R(11,13)                1.0898         estimate D2E/DX2                !
 ! R14   R(11,14)                1.0922         estimate D2E/DX2                !
 ! R15   R(11,15)                1.0922         estimate D2E/DX2                !
 ! A1    A(2,1,6)              124.7428         estimate D2E/DX2                !
 ! A2    A(2,1,9)              114.8171         estimate D2E/DX2                !
 ! A3    A(6,1,9)              120.44           estimate D2E/DX2                !
 ! A4    A(1,2,3)              113.8972         estimate D2E/DX2                !
 ! A5    A(1,2,7)              124.5245         estimate D2E/DX2                !
 ! A6    A(3,2,7)              121.5784         estimate D2E/DX2                !
 ! A7    A(2,3,4)              123.234          estimate D2E/DX2                !
 ! A8    A(2,3,10)             116.0419         estimate D2E/DX2                !
 ! A9    A(4,3,10)             120.7241         estimate D2E/DX2                !
 ! A10   A(3,4,5)              120.8472         estimate D2E/DX2                !
 ! A11   A(3,4,8)              113.4872         estimate D2E/DX2                !
 ! A12   A(5,4,8)              125.6656         estimate D2E/DX2                !
 ! A13   A(4,5,6)              117.1263         estimate D2E/DX2                !
 ! A14   A(4,5,11)             120.263          estimate D2E/DX2                !
 ! A15   A(6,5,11)             122.6107         estimate D2E/DX2                !
 ! A16   A(1,6,5)              120.1526         estimate D2E/DX2                !
 ! A17   A(1,6,12)             116.2897         estimate D2E/DX2                !
 ! A18   A(5,6,12)             123.5577         estimate D2E/DX2                !
 ! A19   A(5,11,13)            110.548          estimate D2E/DX2                !
 ! A20   A(5,11,14)            111.4943         estimate D2E/DX2                !
 ! A21   A(5,11,15)            111.4943         estimate D2E/DX2                !
 ! A22   A(13,11,14)           107.827          estimate D2E/DX2                !
 ! A23   A(13,11,15)           107.827          estimate D2E/DX2                !
 ! A24   A(14,11,15)           107.4791         estimate D2E/DX2                !
 ! D1    D(6,1,2,3)              0.0            estimate D2E/DX2                !
 ! D2    D(6,1,2,7)            180.0            estimate D2E/DX2                !
 ! D3    D(9,1,2,3)            180.0            estimate D2E/DX2                !
 ! D4    D(9,1,2,7)              0.0            estimate D2E/DX2                !
 ! D5    D(2,1,6,5)              0.0            estimate D2E/DX2                !
 ! D6    D(2,1,6,12)           180.0            estimate D2E/DX2                !
 ! D7    D(9,1,6,5)            180.0            estimate D2E/DX2                !
 ! D8    D(9,1,6,12)             0.0            estimate D2E/DX2                !
 ! D9    D(1,2,3,4)              0.0            estimate D2E/DX2                !
 ! D10   D(1,2,3,10)           180.0            estimate D2E/DX2                !
 ! D11   D(7,2,3,4)            180.0            estimate D2E/DX2                !
 ! D12   D(7,2,3,10)             0.0            estimate D2E/DX2                !
 ! D13   D(2,3,4,5)              0.0            estimate D2E/DX2                !
 ! D14   D(2,3,4,8)            180.0            estimate D2E/DX2                !
 ! D15   D(10,3,4,5)           180.0            estimate D2E/DX2                !
 ! D16   D(10,3,4,8)             0.0            estimate D2E/DX2                !
 ! D17   D(3,4,5,6)              0.0            estimate D2E/DX2                !
 ! D18   D(3,4,5,11)           180.0            estimate D2E/DX2                !
 ! D19   D(8,4,5,6)            180.0            estimate D2E/DX2                !
 ! D20   D(8,4,5,11)             0.0            estimate D2E/DX2                !
 ! D21   D(4,5,6,1)              0.0            estimate D2E/DX2                !
 ! D22   D(4,5,6,12)           180.0            estimate D2E/DX2                !
 ! D23   D(11,5,6,1)           180.0            estimate D2E/DX2                !
 ! D24   D(11,5,6,12)            0.0            estimate D2E/DX2                !
 ! D25   D(4,5,11,13)          180.0            estimate D2E/DX2                !
 ! D26   D(4,5,11,14)          -60.0666         estimate D2E/DX2                !
 ! D27   D(4,5,11,15)           60.0666         estimate D2E/DX2                !
 ! D28   D(6,5,11,13)            0.0            estimate D2E/DX2                !
 ! D29   D(6,5,11,14)          119.9334         estimate D2E/DX2                !
 ! D30   D(6,5,11,15)         -119.9334         estimate D2E/DX2                !
 --------------------------------------------------------------------------------
 Trust Radius=3.00D-01 FncErr=1.00D-07 GrdErr=1.00D-06 EigMax=2.50D+02 EigMin=1.00D-04
 Number of steps in this run=     79 maximum allowed number of steps=    100.
 GradGradGradGradGradGradGradGradGradGradGradGradGradGradGradGradGradGrad

 Leave Link  103 at Tue Nov 22 10:41:22 2022, MaxMem=  1342177280 cpu:               0.5 elap:               0.0
 (Enter /shared/gaussian/g16.b01/AVX2/g16/l202.exe)
                          Input orientation:                          
 ---------------------------------------------------------------------
 Center     Atomic      Atomic             Coordinates (Angstroms)
 Number     Number       Type             X           Y           Z
 ---------------------------------------------------------------------
      1          7           0        0.111214   -1.665694    0.000000
      2          6           0        1.316088   -1.027196    0.000000
      3          7           0        1.218559    0.359441    0.000000
      4          6           0        0.000000    1.040770    0.000000
      5          6           0       -1.203350    0.347636    0.000000
      6          6           0       -1.136037   -1.020927    0.000000
      7          8           0        2.389030   -1.587046    0.000000
      8          8           0        0.131721    2.354993    0.000000
      9          1           0        0.165720   -2.671043    0.000000
     10          1           0        2.090679    0.864284    0.000000
     11          6           0       -2.506343    1.093712    0.000000
     12          1           0       -2.004323   -1.660464    0.000000
     13          1           0       -3.345334    0.398228    0.000000
     14          1           0       -2.601655    1.732606    0.880648
     15          1           0       -2.601655    1.732606   -0.880648
 ---------------------------------------------------------------------
                    Distance matrix (angstroms):
                    1          2          3          4          5
     1  N    0.000000
     2  C    1.363599   0.000000
     3  N    2.308113   1.390063   0.000000
     4  C    2.708748   2.451239   1.396100   0.000000
     5  C    2.404491   2.870145   2.421938   1.388699   0.000000
     6  C    1.404051   2.452133   2.729384   2.353970   1.370217
     7  O    2.279173   1.210222   2.271302   3.551462   4.080219
     8  O    4.020739   3.583564   2.272321   1.320808   2.410788
     9  H    1.006825   2.006385   3.208162   3.715511   3.314631
    10  H    3.212331   2.043939   1.007700   2.098115   3.334299
    11  C    3.803410   4.371410   3.796584   2.506902   1.501473
    12  H    2.115543   3.380260   3.803549   3.363625   2.161949
    13  H    4.025854   4.874494   4.564058   3.406482   2.142581
    14  H    4.436625   4.872449   4.153933   2.832452   2.156140
    15  H    4.436625   4.872449   4.153933   2.832452   2.156140
                    6          7          8          9         10
     6  C    0.000000
     7  O    3.570236   0.000000
     8  O    3.606112   4.542589   0.000000
     9  H    2.101774   2.473491   5.026151   0.000000
    10  H    3.737073   2.469419   2.461652   4.025420   0.000000
    11  C    2.519809   5.581321   2.924074   4.616633   4.602744
    12  H    1.078391   4.393966   4.548250   2.393816   4.810758
    13  H    2.625832   6.068298   3.989842   4.663467   5.455955
    14  H    3.241222   6.058264   2.938410   5.275038   4.852579
    15  H    3.241222   6.058264   2.938410   5.275038   4.852579
                   11         12         13         14         15
    11  C    0.000000
    12  H    2.799555   0.000000
    13  H    1.089772   2.456934   0.000000
    14  H    1.092159   3.556019   1.763282   0.000000
    15  H    1.092159   3.556019   1.763282   1.761296   0.000000
 Stoichiometry    C5H6N2O2
 Framework group  CS[SG(C5H4N2O2),X(H2)]
 Deg. of freedom    26
 Full point group                 CS      NOp   2
 Largest Abelian subgroup         CS      NOp   2
 Largest concise Abelian subgroup CS      NOp   2
                         Standard orientation:                         
 ---------------------------------------------------------------------
 Center     Atomic      Atomic             Coordinates (Angstroms)
 Number     Number       Type             X           Y           Z
 ---------------------------------------------------------------------
      1          7           0        0.111214   -1.665694    0.000000
      2          6           0        1.316088   -1.027196    0.000000
      3          7           0        1.218559    0.359441    0.000000
      4          6           0        0.000000    1.040770    0.000000
      5          6           0       -1.203350    0.347636    0.000000
      6          6           0       -1.136037   -1.020927    0.000000
      7          8           0        2.389030   -1.587046    0.000000
      8          8           0        0.131721    2.354993    0.000000
      9          1           0        0.165720   -2.671043    0.000000
     10          1           0        2.090679    0.864284    0.000000
     11          6           0       -2.506343    1.093712    0.000000
     12          1           0       -2.004323   -1.660464    0.000000
     13          1           0       -3.345334    0.398228    0.000000
     14          1           0       -2.601655    1.732606    0.880648
     15          1           0       -2.601655    1.732606   -0.880648
 ---------------------------------------------------------------------
 Rotational constants (GHZ):           3.1671368           1.4095213           0.9813379
 Leave Link  202 at Tue Nov 22 10:41:22 2022, MaxMem=  1342177280 cpu:               0.4 elap:               0.0
 (Enter /shared/gaussian/g16.b01/AVX2/g16/l301.exe)
 Standard basis: 6-311+G(d,p) (5D, 7F)
 Ernie: Thresh=  0.10000D-02 Tol=  0.10000D-05 Strict=F.
 There are   179 symmetry adapted cartesian basis functions of A'  symmetry.
 There are    64 symmetry adapted cartesian basis functions of A"  symmetry.
 There are   170 symmetry adapted basis functions of A'  symmetry.
 There are    64 symmetry adapted basis functions of A"  symmetry.
   234 basis functions,   372 primitive gaussians,   243 cartesian basis functions
    33 alpha electrons       33 beta electrons
       nuclear repulsion energy       438.3991502045 Hartrees.
 IExCor=20419 DFT=T Ex+Corr=CAM-B3LYP ExCW=0 ScaHFX=  1.000000
 ScaDFX=  1.000000  1.000000  1.000000  0.810000 ScalE2=  1.000000  1.000000
 IRadAn=      5 IRanWt=     -1 IRanGd=            0 ICorTp=0 IEmpDi=  4
 HFx  wShort=  0.000000 wLong=  0.330000 cFull=  0.190000 cShort=  0.000000 cLong=  0.460000
 DFx  wShort=  0.000000 wLong=  0.330000 cFull=  0.190000 cShort=  0.000000 cLong=  0.460000
 NAtoms=   15 NActive=   15 NUniq=   14 SFac= 1.15D+00 NAtFMM=   60 NAOKFM=F Big=F
 Integral buffers will be    131072 words long.
 Raffenetti 2 integral format.
 Two-electron integral symmetry is turned on.
 Leave Link  301 at Tue Nov 22 10:41:22 2022, MaxMem=  1342177280 cpu:               2.5 elap:               0.1
 (Enter /shared/gaussian/g16.b01/AVX2/g16/l302.exe)
 NPDir=0 NMtPBC=     1 NCelOv=     1 NCel=       1 NClECP=     1 NCelD=      1
         NCelK=      1 NCelE2=     1 NClLst=     1 CellRange=     0.0.
 One-electron integrals computed using PRISM.
 One-electron integral symmetry used in STVInt
 NBasis=   234 RedAO= T EigKep=  9.77D-06  NBF=   170    64
 NBsUse=   234 1.00D-06 EigRej= -1.00D+00 NBFU=   170    64
 Precomputing XC quadrature grid using
 IXCGrd= 4 IRadAn=           5 IRanWt=          -1 IRanGd=           0 AccXCQ= 0.00D+00.
 Generated NRdTot=       0 NPtTot=           0 NUsed=           0 NTot=          32
 NSgBfM=   243   243   243   243   243 MxSgAt=    15 MxSgA2=    15.
 Leave Link  302 at Tue Nov 22 10:41:23 2022, MaxMem=  1342177280 cpu:              12.5 elap:               0.3
 (Enter /shared/gaussian/g16.b01/AVX2/g16/l303.exe)
 DipDrv:  MaxL=1.
 Leave Link  303 at Tue Nov 22 10:41:23 2022, MaxMem=  1342177280 cpu:               2.1 elap:               0.1
 (Enter /shared/gaussian/g16.b01/AVX2/g16/l401.exe)
 ExpMin= 4.38D-02 ExpMax= 8.59D+03 ExpMxC= 1.30D+03 IAcc=3 IRadAn=         5 AccDes= 0.00D+00
 Harris functional with IExCor=20419 and IRadAn=       5 diagonalized for initial guess.
 HarFok:  IExCor=20419 AccDes= 0.00D+00 IRadAn=         5 IDoV= 1 UseB2=F ITyADJ=14
 ICtDFT=  3500011 ScaDFX=  1.000000  1.000000  1.000000  1.000000
 FoFCou: FMM=F IPFlag=           0 FMFlag=      100000 FMFlg1=           0
         NFxFlg=           0 DoJE=T BraDBF=F KetDBF=T FulRan=T
         wScrn=  0.000000 ICntrl=       500 IOpCl=  0 I1Cent=   200000004 NGrid=           0
         NMat0=    1 NMatS0=      1 NMatT0=    0 NMatD0=    1 NMtDS0=    0 NMtDT0=    0
 Petite list used in FoFCou.
 Harris En= -437.697914368041    
 JPrj=0 DoOrth=F DoCkMO=F.
 Initial guess orbital symmetries:
       Occupied  (A') (A') (A') (A') (A') (A') (A') (A') (A') (A')
                 (A') (A') (A') (A') (A') (A') (A') (A') (A') (A')
                 (A") (A') (A') (A') (A") (A') (A') (A") (A") (A')
                 (A") (A') (A")
       Virtual   (A") (A') (A') (A') (A") (A') (A') (A') (A") (A")
                 (A') (A') (A") (A') (A") (A') (A') (A') (A") (A")
                 (A') (A') (A') (A") (A') (A') (A') (A") (A') (A')
                 (A") (A') (A') (A") (A') (A') (A') (A') (A') (A')
                 (A") (A') (A') (A') (A') (A') (A') (A') (A') (A')
                 (A") (A') (A') (A') (A') (A') (A') (A") (A") (A')
                 (A") (A') (A") (A') (A') (A") (A') (A') (A') (A')
                 (A') (A') (A') (A') (A") (A') (A') (A") (A') (A')
                 (A") (A') (A') (A') (A") (A') (A") (A') (A") (A")
                 (A') (A') (A') (A') (A') (A") (A") (A") (A') (A")
                 (A') (A') (A") (A') (A') (A") (A') (A') (A") (A')
                 (A") (A') (A') (A") (A') (A') (A') (A") (A') (A')
                 (A') (A') (A") (A") (A') (A') (A') (A') (A') (A')
                 (A') (A") (A") (A') (A") (A') (A") (A') (A") (A")
                 (A') (A') (A") (A') (A') (A') (A') (A") (A') (A")
                 (A') (A") (A') (A") (A') (A") (A') (A') (A') (A")
                 (A') (A') (A') (A") (A') (A') (A") (A') (A') (A')
                 (A') (A') (A') (A') (A") (A') (A") (A") (A') (A')
                 (A') (A') (A') (A') (A') (A") (A") (A') (A') (A')
                 (A') (A') (A') (A') (A') (A') (A') (A') (A') (A')
                 (A')
 The electronic state of the initial guess is 1-A'.
 Leave Link  401 at Tue Nov 22 10:41:23 2022, MaxMem=  1342177280 cpu:              15.5 elap:               0.4
 (Enter /shared/gaussian/g16.b01/AVX2/g16/l502.exe)
 Integral symmetry usage will be decided dynamically.
 Closed shell SCF:
 Using DIIS extrapolation, IDIIS=  1040.
 NGot=  1342177280 LenX=  1342043586 LenY=  1341984096
 Requested convergence on RMS density matrix=1.00D-08 within 128 cycles.
 Requested convergence on MAX density matrix=1.00D-06.
 Requested convergence on             energy=1.00D-06.
 No special actions if energy rises.
 Fock matrices will be formed incrementally for  20 cycles.

 Cycle   1  Pass 1  IDiag  1:
 FoFJK:  IHMeth= 1 ICntrl=       0 DoSepK=T KAlg= 0 I1Cent=           0 FoldK=F
 IRaf=         1 NMat=       1 IRICut=       1 DoRegI=T DoRafI=F ISym2E= 1 IDoP0=0 IntGTp=1.
 FoFCou: FMM=F IPFlag=           0 FMFlag=      100000 FMFlg1=           0
         NFxFlg=           0 DoJE=T BraDBF=F KetDBF=F FulRan=T
         wScrn=  0.000000 ICntrl=       500 IOpCl=  0 I1Cent=           0 NGrid=           0
         NMat0=    1 NMatS0=      1 NMatT0=    0 NMatD0=    1 NMtDS0=    0 NMtDT0=    0
 Petite list used in FoFCou.
 E= -453.897896377270    
 DIIS: error= 7.16D-02 at cycle   1 NSaved=   1.
 NSaved= 1 IEnMin= 1 EnMin= -453.897896377270     IErMin= 1 ErrMin= 7.16D-02
 ErrMax= 7.16D-02  0.00D+00 EMaxC= 1.00D-01 BMatC= 7.74D-01 BMatP= 7.74D-01
 IDIUse=3 WtCom= 2.84D-01 WtEn= 7.16D-01
 Coeff-Com:  0.100D+01
 Coeff-En:   0.100D+01
 Coeff:      0.100D+01
 Gap=     0.244 Goal=   None    Shift=    0.000
 GapD=    0.244 DampG=1.000 DampE=0.500 DampFc=0.5000 IDamp=-1.
 Damping current iteration by 5.00D-01
 RMSDP=1.02D-02 MaxDP=8.69D-01              OVMax= 2.09D-01

 Cycle   2  Pass 1  IDiag  1:
 RMSU=  4.97D-03    CP:  9.48D-01
 E= -453.965473340541     Delta-E=       -0.067576963271 Rises=F Damp=T
 DIIS: error= 3.44D-02 at cycle   2 NSaved=   2.
 NSaved= 2 IEnMin= 2 EnMin= -453.965473340541     IErMin= 2 ErrMin= 3.44D-02
 ErrMax= 3.44D-02  0.00D+00 EMaxC= 1.00D-01 BMatC= 1.61D-01 BMatP= 7.74D-01
 IDIUse=3 WtCom= 6.56D-01 WtEn= 3.44D-01
 Coeff-Com: -0.478D+00 0.148D+01
 Coeff-En:   0.000D+00 0.100D+01
 Coeff:     -0.314D+00 0.131D+01
 Gap=     0.297 Goal=   None    Shift=    0.000
 RMSDP=5.67D-03 MaxDP=6.52D-01 DE=-6.76D-02 OVMax= 1.76D-01

 Cycle   3  Pass 1  IDiag  1:
 RMSU=  3.77D-03    CP:  7.74D-01  1.19D+00
 E= -453.985625036615     Delta-E=       -0.020151696074 Rises=F Damp=F
 DIIS: error= 2.43D-02 at cycle   3 NSaved=   3.
 NSaved= 3 IEnMin= 3 EnMin= -453.985625036615     IErMin= 3 ErrMin= 2.43D-02
 ErrMax= 2.43D-02  0.00D+00 EMaxC= 1.00D-01 BMatC= 8.88D-02 BMatP= 1.61D-01
 IDIUse=3 WtCom= 7.57D-01 WtEn= 2.43D-01
 Coeff-Com: -0.356D+00 0.823D+00 0.533D+00
 Coeff-En:   0.000D+00 0.352D+00 0.648D+00
 Coeff:     -0.270D+00 0.709D+00 0.561D+00
 Gap=     0.274 Goal=   None    Shift=    0.000
 RMSDP=3.77D-03 MaxDP=3.60D-01 DE=-2.02D-02 OVMax= 1.14D-01

 Cycle   4  Pass 1  IDiag  1:
 RMSU=  1.17D-03    CP:  8.52D-01  1.70D+00  5.49D-01
 E= -454.045381327058     Delta-E=       -0.059756290443 Rises=F Damp=F
 DIIS: error= 7.26D-03 at cycle   4 NSaved=   4.
 NSaved= 4 IEnMin= 4 EnMin= -454.045381327058     IErMin= 4 ErrMin= 7.26D-03
 ErrMax= 7.26D-03  0.00D+00 EMaxC= 1.00D-01 BMatC= 1.22D-02 BMatP= 8.88D-02
 IDIUse=3 WtCom= 9.27D-01 WtEn= 7.26D-02
 Coeff-Com: -0.142D+00 0.311D+00 0.343D+00 0.488D+00
 Coeff-En:   0.000D+00 0.000D+00 0.984D-01 0.902D+00
 Coeff:     -0.132D+00 0.288D+00 0.325D+00 0.518D+00
 Gap=     0.283 Goal=   None    Shift=    0.000
 RMSDP=1.74D-03 MaxDP=1.57D-01 DE=-5.98D-02 OVMax= 2.74D-02

 Cycle   5  Pass 1  IDiag  1:
 RMSU=  4.91D-04    CP:  8.01D-01  1.60D+00  7.73D-01  4.93D-01
 E= -454.053558436470     Delta-E=       -0.008177109413 Rises=F Damp=F
 DIIS: error= 1.96D-03 at cycle   5 NSaved=   5.
 NSaved= 5 IEnMin= 5 EnMin= -454.053558436470     IErMin= 5 ErrMin= 1.96D-03
 ErrMax= 1.96D-03  0.00D+00 EMaxC= 1.00D-01 BMatC= 5.28D-04 BMatP= 1.22D-02
 IDIUse=3 WtCom= 9.80D-01 WtEn= 1.96D-02
 Coeff-Com: -0.479D-01 0.103D+00 0.135D+00 0.289D+00 0.521D+00
 Coeff-En:   0.000D+00 0.000D+00 0.000D+00 0.000D+00 0.100D+01
 Coeff:     -0.469D-01 0.101D+00 0.132D+00 0.283D+00 0.530D+00
 Gap=     0.280 Goal=   None    Shift=    0.000
 RMSDP=2.16D-04 MaxDP=1.65D-02 DE=-8.18D-03 OVMax= 6.46D-03

 Cycle   6  Pass 1  IDiag  1:
 RMSU=  1.04D-04    CP:  8.04D-01  1.62D+00  7.73D-01  5.92D-01  8.14D-01
 E= -454.053946656589     Delta-E=       -0.000388220119 Rises=F Damp=F
 DIIS: error= 3.99D-04 at cycle   6 NSaved=   6.
 NSaved= 6 IEnMin= 6 EnMin= -454.053946656589     IErMin= 6 ErrMin= 3.99D-04
 ErrMax= 3.99D-04  0.00D+00 EMaxC= 1.00D-01 BMatC= 2.98D-05 BMatP= 5.28D-04
 IDIUse=3 WtCom= 9.96D-01 WtEn= 3.99D-03
 Coeff-Com:  0.101D-01-0.226D-01-0.134D-01 0.252D-01 0.242D+00 0.759D+00
 Coeff-En:   0.000D+00 0.000D+00 0.000D+00 0.000D+00 0.000D+00 0.100D+01
 Coeff:      0.101D-01-0.225D-01-0.133D-01 0.251D-01 0.241D+00 0.760D+00
 Gap=     0.281 Goal=   None    Shift=    0.000
 RMSDP=1.58D-04 MaxDP=1.48D-02 DE=-3.88D-04 OVMax= 2.61D-03

 Cycle   7  Pass 1  IDiag  1:
 RMSU=  4.98D-05    CP:  8.00D-01  1.64D+00  7.88D-01  6.19D-01  9.74D-01
                    CP:  9.04D-01
 E= -454.053977250048     Delta-E=       -0.000030593459 Rises=F Damp=F
 DIIS: error= 2.46D-04 at cycle   7 NSaved=   7.
 NSaved= 7 IEnMin= 7 EnMin= -454.053977250048     IErMin= 7 ErrMin= 2.46D-04
 ErrMax= 2.46D-04  0.00D+00 EMaxC= 1.00D-01 BMatC= 5.00D-06 BMatP= 2.98D-05
 IDIUse=3 WtCom= 9.98D-01 WtEn= 2.46D-03
 Coeff-Com:  0.841D-02-0.183D-01-0.163D-01-0.178D-01 0.577D-01 0.351D+00
 Coeff-Com:  0.635D+00
 Coeff-En:   0.000D+00 0.000D+00 0.000D+00 0.000D+00 0.000D+00 0.000D+00
 Coeff-En:   0.100D+01
 Coeff:      0.839D-02-0.183D-01-0.162D-01-0.178D-01 0.576D-01 0.350D+00
 Coeff:      0.636D+00
 Gap=     0.281 Goal=   None    Shift=    0.000
 RMSDP=4.39D-05 MaxDP=3.97D-03 DE=-3.06D-05 OVMax= 8.75D-04

 Cycle   8  Pass 1  IDiag  1:
 RMSU=  1.44D-05    CP:  7.99D-01  1.63D+00  7.93D-01  6.13D-01  9.93D-01
                    CP:  9.85D-01  7.46D-01
 E= -454.053981909537     Delta-E=       -0.000004659489 Rises=F Damp=F
 DIIS: error= 5.38D-05 at cycle   8 NSaved=   8.
 NSaved= 8 IEnMin= 8 EnMin= -454.053981909537     IErMin= 8 ErrMin= 5.38D-05
 ErrMax= 5.38D-05  0.00D+00 EMaxC= 1.00D-01 BMatC= 8.20D-07 BMatP= 5.00D-06
 IDIUse=1 WtCom= 1.00D+00 WtEn= 0.00D+00
 Coeff-Com:  0.251D-02-0.537D-02-0.565D-02-0.164D-01-0.180D-01 0.321D-01
 Coeff-Com:  0.280D+00 0.731D+00
 Coeff:      0.251D-02-0.537D-02-0.565D-02-0.164D-01-0.180D-01 0.321D-01
 Coeff:      0.280D+00 0.731D+00
 Gap=     0.281 Goal=   None    Shift=    0.000
 RMSDP=2.82D-05 MaxDP=3.04D-03 DE=-4.66D-06 OVMax= 2.92D-04

 Cycle   9  Pass 1  IDiag  1:
 RMSU=  6.56D-06    CP:  7.98D-01  1.64D+00  7.97D-01  6.11D-01  1.02D+00
                    CP:  9.99D-01  8.47D-01  1.08D+00
 E= -454.053982848415     Delta-E=       -0.000000938878 Rises=F Damp=F
 DIIS: error= 2.84D-05 at cycle   9 NSaved=   9.
 NSaved= 9 IEnMin= 9 EnMin= -454.053982848415     IErMin= 9 ErrMin= 2.84D-05
 ErrMax= 2.84D-05  0.00D+00 EMaxC= 1.00D-01 BMatC= 7.75D-08 BMatP= 8.20D-07
 IDIUse=1 WtCom= 1.00D+00 WtEn= 0.00D+00
 Coeff-Com: -0.278D-03 0.631D-03 0.436D-03-0.402D-02-0.152D-01-0.374D-01
 Coeff-Com:  0.122D-01 0.265D+00 0.779D+00
 Coeff:     -0.278D-03 0.631D-03 0.436D-03-0.402D-02-0.152D-01-0.374D-01
 Coeff:      0.122D-01 0.265D+00 0.779D+00
 Gap=     0.281 Goal=   None    Shift=    0.000
 RMSDP=7.47D-06 MaxDP=5.96D-04 DE=-9.39D-07 OVMax= 3.04D-04

 Cycle  10  Pass 1  IDiag  1:
 RMSU=  2.43D-06    CP:  7.98D-01  1.63D+00  7.98D-01  6.09D-01  1.02D+00
                    CP:  1.01D+00  8.49D-01  1.16D+00  1.06D+00
 E= -454.053982961829     Delta-E=       -0.000000113414 Rises=F Damp=F
 DIIS: error= 9.14D-06 at cycle  10 NSaved=  10.
 NSaved=10 IEnMin=10 EnMin= -454.053982961829     IErMin=10 ErrMin= 9.14D-06
 ErrMax= 9.14D-06  0.00D+00 EMaxC= 1.00D-01 BMatC= 1.52D-08 BMatP= 7.75D-08
 IDIUse=1 WtCom= 1.00D+00 WtEn= 0.00D+00
 Coeff-Com: -0.471D-03 0.103D-02 0.106D-02 0.651D-03-0.373D-02-0.198D-01
 Coeff-Com: -0.344D-01-0.723D-03 0.364D+00 0.692D+00
 Coeff:     -0.471D-03 0.103D-02 0.106D-02 0.651D-03-0.373D-02-0.198D-01
 Coeff:     -0.344D-01-0.723D-03 0.364D+00 0.692D+00
 Gap=     0.281 Goal=   None    Shift=    0.000
 RMSDP=1.74D-06 MaxDP=1.35D-04 DE=-1.13D-07 OVMax= 4.47D-05

 Cycle  11  Pass 1  IDiag  1:
 RMSU=  6.84D-07    CP:  7.98D-01  1.63D+00  7.98D-01  6.09D-01  1.02D+00
                    CP:  1.00D+00  8.54D-01  1.18D+00  1.19D+00  1.02D+00
 E= -454.053982980053     Delta-E=       -0.000000018225 Rises=F Damp=F
 DIIS: error= 2.05D-06 at cycle  11 NSaved=  11.
 NSaved=11 IEnMin=11 EnMin= -454.053982980053     IErMin=11 ErrMin= 2.05D-06
 ErrMax= 2.05D-06  0.00D+00 EMaxC= 1.00D-01 BMatC= 8.55D-10 BMatP= 1.52D-08
 IDIUse=1 WtCom= 1.00D+00 WtEn= 0.00D+00
 Coeff-Com: -0.797D-04 0.173D-03 0.230D-03 0.541D-03 0.373D-03-0.218D-02
 Coeff-Com: -0.129D-01-0.324D-01 0.605D-01 0.203D+00 0.783D+00
 Coeff:     -0.797D-04 0.173D-03 0.230D-03 0.541D-03 0.373D-03-0.218D-02
 Coeff:     -0.129D-01-0.324D-01 0.605D-01 0.203D+00 0.783D+00
 Gap=     0.281 Goal=   None    Shift=    0.000
 RMSDP=4.66D-07 MaxDP=3.08D-05 DE=-1.82D-08 OVMax= 3.07D-05

 Cycle  12  Pass 1  IDiag  1:
 RMSU=  1.72D-07    CP:  7.98D-01  1.63D+00  7.98D-01  6.09D-01  1.02D+00
                    CP:  1.00D+00  8.53D-01  1.19D+00  1.21D+00  1.08D+00
                    CP:  1.10D+00
 E= -454.053982981370     Delta-E=       -0.000000001317 Rises=F Damp=F
 DIIS: error= 1.18D-06 at cycle  12 NSaved=  12.
 NSaved=12 IEnMin=12 EnMin= -454.053982981370     IErMin=12 ErrMin= 1.18D-06
 ErrMax= 1.18D-06  0.00D+00 EMaxC= 1.00D-01 BMatC= 2.19D-10 BMatP= 8.55D-10
 IDIUse=1 WtCom= 1.00D+00 WtEn= 0.00D+00
 Coeff-Com:  0.180D-04-0.402D-04-0.737D-05 0.181D-03 0.698D-03 0.164D-02
 Coeff-Com: -0.931D-03-0.144D-01-0.165D-01-0.321D-01 0.316D+00 0.745D+00
 Coeff:      0.180D-04-0.402D-04-0.737D-05 0.181D-03 0.698D-03 0.164D-02
 Coeff:     -0.931D-03-0.144D-01-0.165D-01-0.321D-01 0.316D+00 0.745D+00
 Gap=     0.281 Goal=   None    Shift=    0.000
 RMSDP=2.20D-07 MaxDP=1.18D-05 DE=-1.32D-09 OVMax= 7.63D-06

 Cycle  13  Pass 1  IDiag  1:
 RMSU=  8.55D-08    CP:  7.98D-01  1.63D+00  7.98D-01  6.09D-01  1.02D+00
                    CP:  1.00D+00  8.53D-01  1.19D+00  1.23D+00  1.09D+00
                    CP:  1.16D+00  1.07D+00
 E= -454.053982981638     Delta-E=       -0.000000000268 Rises=F Damp=F
 DIIS: error= 3.52D-07 at cycle  13 NSaved=  13.
 NSaved=13 IEnMin=13 EnMin= -454.053982981638     IErMin=13 ErrMin= 3.52D-07
 ErrMax= 3.52D-07  0.00D+00 EMaxC= 1.00D-01 BMatC= 1.71D-11 BMatP= 2.19D-10
 IDIUse=1 WtCom= 1.00D+00 WtEn= 0.00D+00
 Coeff-Com:  0.114D-04-0.247D-04-0.208D-04-0.256D-04 0.109D-03 0.514D-03
 Coeff-Com:  0.104D-02-0.390D-04-0.677D-02-0.343D-01-0.955D-02 0.971D-01
 Coeff-Com:  0.952D+00
 Coeff:      0.114D-04-0.247D-04-0.208D-04-0.256D-04 0.109D-03 0.514D-03
 Coeff:      0.104D-02-0.390D-04-0.677D-02-0.343D-01-0.955D-02 0.971D-01
 Coeff:      0.952D+00
 Gap=     0.281 Goal=   None    Shift=    0.000
 RMSDP=6.21D-08 MaxDP=2.69D-06 DE=-2.68D-10 OVMax= 3.22D-06

 Cycle  14  Pass 1  IDiag  1:
 RMSU=  2.68D-08    CP:  7.98D-01  1.63D+00  7.98D-01  6.09D-01  1.02D+00
                    CP:  1.00D+00  8.53D-01  1.19D+00  1.23D+00  1.09D+00
                    CP:  1.20D+00  1.15D+00  1.23D+00
 E= -454.053982981671     Delta-E=       -0.000000000033 Rises=F Damp=F
 DIIS: error= 1.35D-07 at cycle  14 NSaved=  14.
 NSaved=14 IEnMin=14 EnMin= -454.053982981671     IErMin=14 ErrMin= 1.35D-07
 ErrMax= 1.35D-07  0.00D+00 EMaxC= 1.00D-01 BMatC= 3.12D-12 BMatP= 1.71D-11
 IDIUse=1 WtCom= 1.00D+00 WtEn= 0.00D+00
 Coeff-Com:  0.436D-05-0.924D-05-0.112D-04-0.371D-04-0.345D-04 0.623D-04
 Coeff-Com:  0.633D-03 0.170D-02-0.748D-03-0.131D-01-0.395D-01-0.544D-01
 Coeff-Com:  0.452D+00 0.653D+00
 Coeff:      0.436D-05-0.924D-05-0.112D-04-0.371D-04-0.345D-04 0.623D-04
 Coeff:      0.633D-03 0.170D-02-0.748D-03-0.131D-01-0.395D-01-0.544D-01
 Coeff:      0.452D+00 0.653D+00
 Gap=     0.281 Goal=   None    Shift=    0.000
 RMSDP=2.15D-08 MaxDP=1.38D-06 DE=-3.29D-11 OVMax= 1.12D-06

 Cycle  15  Pass 1  IDiag  1:
 RMSU=  8.78D-09    CP:  7.98D-01  1.63D+00  7.98D-01  6.09D-01  1.02D+00
                    CP:  1.00D+00  8.53D-01  1.19D+00  1.23D+00  1.09D+00
                    CP:  1.20D+00  1.17D+00  1.31D+00  1.03D+00
 E= -454.053982981672     Delta-E=       -0.000000000001 Rises=F Damp=F
 DIIS: error= 3.06D-08 at cycle  15 NSaved=  15.
 NSaved=15 IEnMin=15 EnMin= -454.053982981672     IErMin=15 ErrMin= 3.06D-08
 ErrMax= 3.06D-08  0.00D+00 EMaxC= 1.00D-01 BMatC= 2.08D-13 BMatP= 3.12D-12
 IDIUse=1 WtCom= 1.00D+00 WtEn= 0.00D+00
 Coeff-Com: -0.653D-06 0.145D-05 0.570D-06-0.394D-05-0.275D-04-0.540D-04
 Coeff-Com:  0.282D-04 0.433D-03 0.846D-03 0.597D-03-0.758D-02-0.280D-01
 Coeff-Com: -0.137D-01 0.145D+00 0.903D+00
 Coeff:     -0.653D-06 0.145D-05 0.570D-06-0.394D-05-0.275D-04-0.540D-04
 Coeff:      0.282D-04 0.433D-03 0.846D-03 0.597D-03-0.758D-02-0.280D-01
 Coeff:     -0.137D-01 0.145D+00 0.903D+00
 Gap=     0.281 Goal=   None    Shift=    0.000
 RMSDP=1.38D-08 MaxDP=9.86D-07 DE=-7.96D-13 OVMax= 3.19D-07

 Cycle  16  Pass 1  IDiag  1:
 RMSU=  3.28D-09    CP:  7.98D-01  1.63D+00  7.98D-01  6.09D-01  1.02D+00
                    CP:  1.00D+00  8.53D-01  1.19D+00  1.23D+00  1.09D+00
                    CP:  1.20D+00  1.18D+00  1.33D+00  1.14D+00  1.13D+00
 E= -454.053982981673     Delta-E=       -0.000000000001 Rises=F Damp=F
 DIIS: error= 1.11D-08 at cycle  16 NSaved=  16.
 NSaved=16 IEnMin=16 EnMin= -454.053982981673     IErMin=16 ErrMin= 1.11D-08
 ErrMax= 1.11D-08  0.00D+00 EMaxC= 1.00D-01 BMatC= 1.90D-14 BMatP= 2.08D-13
 IDIUse=1 WtCom= 1.00D+00 WtEn= 0.00D+00
 Coeff-Com: -0.312D-06 0.674D-06 0.584D-06 0.793D-06-0.794D-05-0.178D-04
 Coeff-Com: -0.230D-04 0.247D-04 0.317D-03 0.676D-03 0.409D-03-0.432D-02
 Coeff-Com: -0.234D-01 0.517D-02 0.251D+00 0.771D+00
 Coeff:     -0.312D-06 0.674D-06 0.584D-06 0.793D-06-0.794D-05-0.178D-04
 Coeff:     -0.230D-04 0.247D-04 0.317D-03 0.676D-03 0.409D-03-0.432D-02
 Coeff:     -0.234D-01 0.517D-02 0.251D+00 0.771D+00
 Gap=     0.281 Goal=   None    Shift=    0.000
 RMSDP=3.75D-09 MaxDP=3.38D-07 DE=-1.25D-12 OVMax= 5.61D-08

 SCF Done:  E(RCAM-B3LYP) =  -454.053982982     A.U. after   16 cycles
            NFock= 16  Conv=0.37D-08     -V/T= 2.0037
 KE= 4.523903315293D+02 PE=-1.938261844531D+03 EE= 5.934183798154D+02
 Leave Link  502 at Tue Nov 22 10:41:32 2022, MaxMem=  1342177280 cpu:             445.7 elap:               8.7
 (Enter /shared/gaussian/g16.b01/AVX2/g16/l601.exe)
 Copying SCF densities to generalized density rwf, IOpCl= 0 IROHF=0.

 **********************************************************************

            Population analysis using the SCF Density.

 **********************************************************************

 Orbital symmetries:
       Occupied  (A') (A') (A') (A') (A') (A') (A') (A') (A') (A')
                 (A') (A') (A') (A') (A') (A') (A') (A') (A') (A')
                 (A") (A') (A') (A") (A') (A') (A") (A') (A") (A')
                 (A") (A') (A")
       Virtual   (A") (A') (A') (A') (A") (A") (A') (A') (A') (A")
                 (A") (A') (A') (A') (A") (A') (A') (A") (A') (A")
                 (A') (A") (A') (A') (A') (A') (A') (A') (A') (A")
                 (A") (A') (A') (A') (A') (A') (A") (A') (A') (A')
                 (A') (A') (A') (A") (A') (A') (A') (A') (A') (A')
                 (A") (A') (A') (A') (A') (A') (A") (A') (A') (A")
                 (A") (A') (A") (A') (A") (A') (A') (A') (A') (A')
                 (A') (A') (A') (A") (A') (A') (A") (A') (A') (A')
                 (A') (A") (A') (A') (A") (A') (A") (A") (A') (A')
                 (A") (A") (A') (A') (A') (A") (A') (A") (A') (A')
                 (A") (A') (A") (A') (A') (A') (A") (A") (A') (A')
                 (A") (A') (A") (A') (A') (A') (A') (A") (A') (A')
                 (A') (A') (A") (A') (A") (A') (A') (A') (A') (A')
                 (A") (A') (A") (A') (A") (A") (A') (A') (A") (A")
                 (A') (A') (A") (A') (A') (A') (A') (A') (A") (A")
                 (A") (A') (A') (A') (A") (A') (A") (A') (A') (A')
                 (A") (A') (A') (A') (A") (A') (A") (A') (A') (A')
                 (A') (A') (A') (A') (A") (A") (A') (A") (A') (A')
                 (A') (A') (A') (A') (A') (A") (A") (A') (A') (A')
                 (A') (A') (A') (A') (A') (A') (A') (A') (A') (A')
                 (A')
 The electronic state is 1-A'.
 Alpha  occ. eigenvalues --  -19.18654 -19.16921 -14.47421 -14.45339 -10.41160
 Alpha  occ. eigenvalues --  -10.37730 -10.35026 -10.29127 -10.26076  -1.18029
 Alpha  occ. eigenvalues --   -1.10458  -1.07174  -1.01004  -0.92533  -0.81277
 Alpha  occ. eigenvalues --   -0.78393  -0.74734  -0.66244  -0.65841  -0.61212
 Alpha  occ. eigenvalues --   -0.57398  -0.56085  -0.52681  -0.51031  -0.49632
 Alpha  occ. eigenvalues --   -0.48291  -0.46416  -0.46253  -0.44019  -0.37528
 Alpha  occ. eigenvalues --   -0.34981  -0.33051  -0.31503
 Alpha virt. eigenvalues --   -0.03415   0.00516   0.03179   0.03702   0.04262
 Alpha virt. eigenvalues --    0.05457   0.06029   0.07242   0.07715   0.08545
 Alpha virt. eigenvalues --    0.09904   0.09966   0.10776   0.11987   0.13773
 Alpha virt. eigenvalues --    0.14039   0.14925   0.14961   0.15401   0.16844
 Alpha virt. eigenvalues --    0.17065   0.18622   0.18648   0.19176   0.20328
 Alpha virt. eigenvalues --    0.20981   0.22316   0.23416   0.23923   0.24045
 Alpha virt. eigenvalues --    0.24348   0.24946   0.25648   0.27747   0.28516
 Alpha virt. eigenvalues --    0.29857   0.30016   0.30311   0.30640   0.32539
 Alpha virt. eigenvalues --    0.33241   0.34730   0.35086   0.35493   0.37062
 Alpha virt. eigenvalues --    0.38346   0.39898   0.40931   0.41866   0.42588
 Alpha virt. eigenvalues --    0.46586   0.47863   0.50499   0.51797   0.55359
 Alpha virt. eigenvalues --    0.57764   0.59120   0.59501   0.61204   0.62144
 Alpha virt. eigenvalues --    0.63048   0.64980   0.66066   0.68228   0.69916
 Alpha virt. eigenvalues --    0.70376   0.71420   0.72898   0.74291   0.77025
 Alpha virt. eigenvalues --    0.78290   0.82727   0.83306   0.85349   0.86605
 Alpha virt. eigenvalues --    0.88113   0.89986   0.90474   0.94079   0.96158
 Alpha virt. eigenvalues --    0.97913   1.00215   1.02891   1.06693   1.07831
 Alpha virt. eigenvalues --    1.12832   1.16106   1.16748   1.17000   1.20024
 Alpha virt. eigenvalues --    1.20381   1.22987   1.24441   1.25368   1.27990
 Alpha virt. eigenvalues --    1.29469   1.30293   1.34475   1.37948   1.40833
 Alpha virt. eigenvalues --    1.41613   1.48940   1.52204   1.54926   1.57347
 Alpha virt. eigenvalues --    1.58821   1.61125   1.62387   1.63838   1.67885
 Alpha virt. eigenvalues --    1.69976   1.70368   1.73336   1.74970   1.78434
 Alpha virt. eigenvalues --    1.81292   1.84834   1.85093   1.87670   1.88135
 Alpha virt. eigenvalues --    1.90632   1.92584   1.99427   2.03345   2.04899
 Alpha virt. eigenvalues --    2.05997   2.09455   2.14968   2.19431   2.20981
 Alpha virt. eigenvalues --    2.27897   2.28775   2.35176   2.38299   2.38997
 Alpha virt. eigenvalues --    2.46147   2.46717   2.52064   2.52467   2.58004
 Alpha virt. eigenvalues --    2.58824   2.60732   2.64768   2.65868   2.69387
 Alpha virt. eigenvalues --    2.71785   2.75122   2.80367   2.81477   2.83453
 Alpha virt. eigenvalues --    2.87249   2.87925   2.92000   2.93304   2.95947
 Alpha virt. eigenvalues --    2.98378   2.99782   3.00394   3.03274   3.04636
 Alpha virt. eigenvalues --    3.05764   3.15813   3.22785   3.32171   3.33717
 Alpha virt. eigenvalues --    3.37953   3.43099   3.46512   3.49649   3.62744
 Alpha virt. eigenvalues --    3.65034   3.66464   3.68247   3.77043   3.85658
 Alpha virt. eigenvalues --    3.88061   3.90110   3.92587   3.99243   4.07609
 Alpha virt. eigenvalues --    4.27334   4.36872   4.76646   4.89891   4.92150
 Alpha virt. eigenvalues --    5.10459   5.14046   5.22130   5.25306   5.38752
 Alpha virt. eigenvalues --    5.78516   5.86313  23.66507  23.91237  23.96909
 Alpha virt. eigenvalues --   24.00333  24.16972  35.61906  35.66925  50.02060
 Alpha virt. eigenvalues --   50.08396
          Condensed to atoms (all electrons):
               1          2          3          4          5          6
     1  N    7.086382   0.283380  -0.274603   0.270732   0.140967  -0.293958
     2  C    0.283380   5.085962   0.141066  -0.256367   0.426486  -0.470351
     3  N   -0.274603   0.141066   7.414285  -0.260896  -0.282780   0.516738
     4  C    0.270732  -0.256367  -0.260896   8.133005  -1.312912  -0.557088
     5  C    0.140967   0.426486  -0.282780  -1.312912   8.332283  -1.682947
     6  C   -0.293958  -0.470351   0.516738  -0.557088  -1.682947   8.530950
     7  O   -0.131508   0.399910  -0.108334   0.033204  -0.033966   0.058674
     8  O    0.000953   0.033560  -0.106917   0.353102  -0.100346  -0.021350
     9  H    0.341730  -0.020072   0.010745  -0.013618   0.008121  -0.012095
    10  H    0.011146  -0.024794   0.334605  -0.011394   0.024275  -0.019876
    11  C   -0.007989  -0.022590   0.037950  -0.356336  -0.154192  -0.091166
    12  H   -0.044025   0.010780  -0.003280  -0.008471   0.052889   0.316613
    13  H   -0.001419   0.001221   0.000707  -0.026820  -0.171233   0.066918
    14  H    0.001272   0.000925  -0.000838   0.020628   0.035719  -0.031652
    15  H    0.001272   0.000925  -0.000838   0.020628   0.035719  -0.031652
               7          8          9         10         11         12
     1  N   -0.131508   0.000953   0.341730   0.011146  -0.007989  -0.044025
     2  C    0.399910   0.033560  -0.020072  -0.024794  -0.022590   0.010780
     3  N   -0.108334  -0.106917   0.010745   0.334605   0.037950  -0.003280
     4  C    0.033204   0.353102  -0.013618  -0.011394  -0.356336  -0.008471
     5  C   -0.033966  -0.100346   0.008121   0.024275  -0.154192   0.052889
     6  C    0.058674  -0.021350  -0.012095  -0.019876  -0.091166   0.316613
     7  O    8.132145   0.002057   0.012769   0.006650   0.003658  -0.000109
     8  O    0.002057   8.162958  -0.000041   0.009121   0.062169   0.000036
     9  H    0.012769  -0.000041   0.337531  -0.000089   0.000865  -0.003804
    10  H    0.006650   0.009121  -0.000089   0.308814   0.003290   0.000049
    11  C    0.003658   0.062169   0.000865   0.003290   5.864523   0.029568
    12  H   -0.000109   0.000036  -0.003804   0.000049   0.029568   0.492401
    13  H   -0.000024   0.002747  -0.000033  -0.000001   0.489811   0.001368
    14  H   -0.000010  -0.003053   0.000005   0.000008   0.346118   0.000152
    15  H   -0.000010  -0.003053   0.000005   0.000008   0.346118   0.000152
              13         14         15
     1  N   -0.001419   0.001272   0.001272
     2  C    0.001221   0.000925   0.000925
     3  N    0.000707  -0.000838  -0.000838
     4  C   -0.026820   0.020628   0.020628
     5  C   -0.171233   0.035719   0.035719
     6  C    0.066918  -0.031652  -0.031652
     7  O   -0.000024  -0.000010  -0.000010
     8  O    0.002747  -0.003053  -0.003053
     9  H   -0.000033   0.000005   0.000005
    10  H   -0.000001   0.000008   0.000008
    11  C    0.489811   0.346118   0.346118
    12  H    0.001368   0.000152   0.000152
    13  H    0.564281  -0.027418  -0.027418
    14  H   -0.027418   0.505767  -0.025071
    15  H   -0.027418  -0.025071   0.505767
 Mulliken charges:
               1
     1  N   -0.384330
     2  C    0.409959
     3  N   -0.417608
     4  C   -0.027397
     5  C    0.681918
     6  C   -0.277756
     7  O   -0.375107
     8  O   -0.391944
     9  H    0.337981
    10  H    0.358188
    11  C   -0.551795
    12  H    0.155682
    13  H    0.127314
    14  H    0.177448
    15  H    0.177448
 Sum of Mulliken charges =  -0.00000
 Mulliken charges with hydrogens summed into heavy atoms:
               1
     1  N   -0.046349
     2  C    0.409959
     3  N   -0.059420
     4  C   -0.027397
     5  C    0.681918
     6  C   -0.122075
     7  O   -0.375107
     8  O   -0.391944
    11  C   -0.069586
 Electronic spatial extent (au):  <R**2>=           1137.7039
 Charge=             -0.0000 electrons
 Dipole moment (field-independent basis, Debye):
    X=             -4.0785    Y=             -3.8090    Z=              0.0000  Tot=              5.5805
 Quadrupole moment (field-independent basis, Debye-Ang):
   XX=            -53.5112   YY=            -58.9522   ZZ=            -53.0993
   XY=              8.1566   XZ=             -0.0000   YZ=              0.0000
 Traceless Quadrupole moment (field-independent basis, Debye-Ang):
   XX=              1.6764   YY=             -3.7647   ZZ=              2.0883
   XY=              8.1566   XZ=             -0.0000   YZ=              0.0000
 Octapole moment (field-independent basis, Debye-Ang**2):
  XXX=            -21.5860  YYY=            -50.6680  ZZZ=              0.0000  XYY=            -15.5381
  XXY=             23.1262  XXZ=              0.0000  XZZ=              3.4937  YZZ=              1.0195
  YYZ=              0.0000  XYZ=             -0.0000
 Hexadecapole moment (field-independent basis, Debye-Ang**3):
 XXXX=           -800.0550 YYYY=           -662.1957 ZZZZ=            -60.6305 XXXY=            187.7658
 XXXZ=             -0.0000 YYYX=            142.1504 YYYZ=              0.0000 ZZZX=             -0.0000
 ZZZY=              0.0000 XXYY=           -250.8003 XXZZ=           -140.7603 YYZZ=           -116.5493
 XXYZ=              0.0000 YYXZ=             -0.0000 ZZXY=             36.5412
 N-N= 4.383991502045D+02 E-N=-1.938261843947D+03  KE= 4.523903315293D+02
 Symmetry A'   KE= 4.337696209508D+02
 Symmetry A"   KE= 1.862071057853D+01
 No NMR shielding tensors so no spin-rotation constants.
 Leave Link  601 at Tue Nov 22 10:41:32 2022, MaxMem=  1342177280 cpu:               8.3 elap:               0.2
 (Enter /shared/gaussian/g16.b01/AVX2/g16/l701.exe)
 ... and contract with generalized density number  0.
 Compute integral first derivatives.
 Leave Link  701 at Tue Nov 22 10:41:32 2022, MaxMem=  1342177280 cpu:               6.9 elap:               0.1
 (Enter /shared/gaussian/g16.b01/AVX2/g16/l702.exe)
 L702 exits ... SP integral derivatives will be done elsewhere.
 Leave Link  702 at Tue Nov 22 10:41:32 2022, MaxMem=  1342177280 cpu:               0.6 elap:               0.0
 (Enter /shared/gaussian/g16.b01/AVX2/g16/l703.exe)
 Integral derivatives from FoFJK, PRISM(SPDF).
 Compute integral first derivatives, UseDBF=F ICtDFT=           0.
 Calling FoFJK, ICntrl=      2127 FMM=F ISym2X=1 I1Cent= 0 IOpClX= 0 NMat=1 NMatS=1 NMatT=0.
 FoFJK:  IHMeth= 1 ICntrl=    2127 DoSepK=T KAlg= 0 I1Cent=           0 FoldK=F
 IRaf=         1 NMat=       1 IRICut=       1 DoRegI=T DoRafI=F ISym2E= 1 IDoP0=0 IntGTp=1.
 FoFCou: FMM=F IPFlag=           0 FMFlag=      100000 FMFlg1=         800
         NFxFlg=           0 DoJE=F BraDBF=F KetDBF=F FulRan=T
         wScrn=  0.000000 ICntrl=      2527 IOpCl=  0 I1Cent=           0 NGrid=           0
         NMat0=    1 NMatS0=      1 NMatT0=    0 NMatD0=    1 NMtDS0=    0 NMtDT0=    0
 Petite list used in FoFCou.
 Leave Link  703 at Tue Nov 22 10:41:33 2022, MaxMem=  1342177280 cpu:              56.4 elap:               1.1
 (Enter /shared/gaussian/g16.b01/AVX2/g16/l716.exe)
 Dipole        =-1.60458662D+00-1.49855661D+00 0.00000000D+00
 ***** Axes restored to original set *****
 -------------------------------------------------------------------
 Center     Atomic                   Forces (Hartrees/Bohr)
 Number     Number              X              Y              Z
 -------------------------------------------------------------------
      1        7          -0.031201729   -0.000397436   -0.000000000
      2        6           0.023333729    0.019655328   -0.000000000
      3        7          -0.031409539   -0.029111788    0.000000000
      4        6           0.077494403    0.143110948    0.000000000
      5        6          -0.037761661   -0.047396080    0.000000000
      6        6           0.026775595    0.020461454   -0.000000000
      7        8          -0.004263366   -0.006530113    0.000000000
      8        8          -0.023881767   -0.101125112   -0.000000000
      9        1          -0.000459481   -0.001954920    0.000000000
     10        1          -0.001529011    0.006250322    0.000000000
     11        6          -0.000579389   -0.000368309    0.000000000
     12        1          -0.000787707   -0.001802413   -0.000000000
     13        1          -0.000188512   -0.001479050    0.000000000
     14        1           0.002229218    0.000343585   -0.001121071
     15        1           0.002229218    0.000343585    0.001121071
 -------------------------------------------------------------------
 Cartesian Forces:  Max     0.143110948 RMS     0.031956482
 Leave Link  716 at Tue Nov 22 10:41:33 2022, MaxMem=  1342177280 cpu:               0.8 elap:               0.0
 (Enter /shared/gaussian/g16.b01/AVX2/g16/l103.exe)

 GradGradGradGradGradGradGradGradGradGradGradGradGradGradGradGradGradGrad
 Berny optimization.
 FormGI is forming the generalized inverse of G from B-inverse, IUseBI=4.
 Internal  Forces:  Max     0.103002639 RMS     0.014855187
 Search for a local minimum.
 Step number   1 out of a maximum of   79
 All quantities printed in internal units (Hartrees-Bohrs-Radians)
 RMS Force = .14855D-01 SwitMx=.10000D-02 MixMth= 1
 Mixed Optimization -- RFO/linear search
 Second derivative matrix not updated -- first step.
 ITU=  0
     Eigenvalues ---    0.00746   0.01641   0.01781   0.01803   0.01894
     Eigenvalues ---    0.01920   0.02014   0.02036   0.02121   0.02317
     Eigenvalues ---    0.07141   0.07238   0.16000   0.16000   0.16000
     Eigenvalues ---    0.16000   0.16000   0.16000   0.22365   0.23473
     Eigenvalues ---    0.24597   0.25000   0.25000   0.25000   0.32223
     Eigenvalues ---    0.34564   0.34564   0.34839   0.36189   0.41714
     Eigenvalues ---    0.44592   0.45654   0.46360   0.46508   0.47149
     Eigenvalues ---    0.49947   0.51311   0.61731   0.99850
 RFO step:  Lambda=-2.86586117D-02 EMin= 7.46467026D-03
 Linear search not attempted -- first point.
 Iteration  1 RMS(Cart)=  0.02515471 RMS(Int)=  0.00086691
 Iteration  2 RMS(Cart)=  0.00126973 RMS(Int)=  0.00010242
 Iteration  3 RMS(Cart)=  0.00000218 RMS(Int)=  0.00010240
 Iteration  4 RMS(Cart)=  0.00000000 RMS(Int)=  0.00010240
 ITry= 1 IFail=0 DXMaxC= 8.20D-02 DCOld= 1.00D+10 DXMaxT= 3.00D-01 DXLimC= 3.00D+00 Rises=F
 ClnCor:  largest displacement from symmetrization is 1.30D-10 for atom     7.
 Variable       Old X    -DE/DX   Delta X   Delta X   Delta X     New X
                                 (Linear)    (Quad)   (Total)
    R1        2.57683   0.01151   0.00000   0.01974   0.01967   2.59649
    R2        2.65327  -0.02210   0.00000  -0.04801  -0.04820   2.60507
    R3        1.90262   0.00193   0.00000   0.00390   0.00390   1.90653
    R4        2.62684  -0.00530   0.00000  -0.00997  -0.00982   2.61701
    R5        2.28699  -0.00076   0.00000  -0.00074  -0.00074   2.28625
    R6        2.63825  -0.01195   0.00000  -0.02258  -0.02239   2.61586
    R7        1.90428   0.00181   0.00000   0.00367   0.00367   1.90795
    R8        2.62426   0.03896   0.00000   0.07851   0.07857   2.70283
    R9        2.49596  -0.10300   0.00000  -0.15946  -0.15946   2.33651
   R10        2.58934  -0.02323   0.00000  -0.04369  -0.04383   2.54550
   R11        2.83737  -0.00378   0.00000  -0.01077  -0.01077   2.82660
   R12        2.03786   0.00170   0.00000   0.00436   0.00436   2.04223
   R13        2.05937   0.00109   0.00000   0.00289   0.00289   2.06226
   R14        2.06388  -0.00090   0.00000  -0.00240  -0.00240   2.06148
   R15        2.06388  -0.00090   0.00000  -0.00240  -0.00240   2.06148
    A1        2.17717  -0.00109   0.00000  -0.01147  -0.01171   2.16546
    A2        2.00394   0.00108   0.00000   0.00858   0.00870   2.01264
    A3        2.10208   0.00001   0.00000   0.00289   0.00301   2.10508
    A4        1.98788  -0.00399   0.00000  -0.01691  -0.01683   1.97105
    A5        2.17336  -0.00688   0.00000  -0.02340  -0.02343   2.14993
    A6        2.12194   0.01087   0.00000   0.04030   0.04027   2.16221
    A7        2.15084   0.01190   0.00000   0.05080   0.05111   2.20195
    A8        2.02531  -0.00007   0.00000   0.00577   0.00561   2.03093
    A9        2.10703  -0.01183   0.00000  -0.05656  -0.05672   2.05031
   A10        2.10918  -0.01853   0.00000  -0.06258  -0.06232   2.04686
   A11        1.98073   0.02633   0.00000   0.09254   0.09242   2.07314
   A12        2.19328  -0.00781   0.00000  -0.02997  -0.03010   2.16318
   A13        2.04424   0.00240   0.00000   0.00857   0.00848   2.05272
   A14        2.09899  -0.00408   0.00000  -0.01461  -0.01457   2.08442
   A15        2.13996   0.00168   0.00000   0.00604   0.00608   2.14604
   A16        2.09706   0.00931   0.00000   0.03159   0.03127   2.12833
   A17        2.02964  -0.00566   0.00000  -0.02111  -0.02095   2.00869
   A18        2.15649  -0.00365   0.00000  -0.01048  -0.01032   2.14617
   A19        1.92943  -0.00005   0.00000   0.00311   0.00312   1.93255
   A20        1.94594  -0.00197   0.00000  -0.01212  -0.01222   1.93372
   A21        1.94594  -0.00197   0.00000  -0.01212  -0.01222   1.93372
   A22        1.88194   0.00193   0.00000   0.01338   0.01339   1.89533
   A23        1.88194   0.00193   0.00000   0.01338   0.01339   1.89533
   A24        1.87586   0.00039   0.00000  -0.00419  -0.00439   1.87148
    D1        0.00000  -0.00000   0.00000  -0.00000   0.00000   0.00000
    D2        3.14159   0.00000   0.00000  -0.00000   0.00000   3.14159
    D3        3.14159  -0.00000   0.00000  -0.00000   0.00000   3.14159
    D4        0.00000  -0.00000   0.00000  -0.00000   0.00000   0.00000
    D5        0.00000   0.00000   0.00000   0.00000   0.00000   0.00000
    D6        3.14159  -0.00000   0.00000  -0.00000   0.00000   3.14159
    D7        3.14159   0.00000   0.00000   0.00000   0.00000   3.14159
    D8        0.00000  -0.00000   0.00000  -0.00000   0.00000   0.00000
    D9        0.00000  -0.00000   0.00000  -0.00000   0.00000   0.00000
   D10        3.14159   0.00000   0.00000   0.00000   0.00000   3.14159
   D11        3.14159  -0.00000   0.00000  -0.00000   0.00000   3.14159
   D12        0.00000  -0.00000   0.00000  -0.00000   0.00000   0.00000
   D13        0.00000   0.00000   0.00000   0.00000   0.00000   0.00000
   D14        3.14159   0.00000   0.00000   0.00000   0.00000   3.14159
   D15        3.14159   0.00000   0.00000   0.00000   0.00000   3.14159
   D16        0.00000   0.00000   0.00000   0.00000   0.00000   0.00000
   D17        0.00000  -0.00000   0.00000  -0.00000   0.00000   0.00000
   D18        3.14159   0.00000   0.00000   0.00000   0.00000   3.14159
   D19        3.14159  -0.00000   0.00000  -0.00000   0.00000   3.14159
   D20        0.00000   0.00000   0.00000   0.00000   0.00000   0.00000
   D21        0.00000  -0.00000   0.00000  -0.00000   0.00000   0.00000
   D22        3.14159   0.00000   0.00000   0.00000   0.00000   3.14159
   D23        3.14159  -0.00000   0.00000  -0.00000   0.00000   3.14159
   D24        0.00000  -0.00000   0.00000  -0.00000   0.00000   0.00000
   D25        3.14159  -0.00000   0.00000  -0.00000   0.00000   3.14159
   D26       -1.04836   0.00110   0.00000   0.01096   0.01087  -1.03749
   D27        1.04836  -0.00110   0.00000  -0.01096  -0.01087   1.03749
   D28        0.00000  -0.00000   0.00000   0.00000   0.00000   0.00000
   D29        2.09323   0.00110   0.00000   0.01096   0.01087   2.10411
   D30       -2.09323  -0.00110   0.00000  -0.01096  -0.01087  -2.10411
         Item               Value     Threshold  Converged?
 Maximum Force            0.103003     0.000450     NO 
 RMS     Force            0.014855     0.000300     NO 
 Maximum Displacement     0.082044     0.001800     NO 
 RMS     Displacement     0.024999     0.001200     NO 
 Predicted change in Energy=-1.521286D-02
 Lowest energy point so far.  Saving SCF results.
 GradGradGradGradGradGradGradGradGradGradGradGradGradGradGradGradGradGrad

 Leave Link  103 at Tue Nov 22 10:41:33 2022, MaxMem=  1342177280 cpu:               1.4 elap:               0.1
 (Enter /shared/gaussian/g16.b01/AVX2/g16/l202.exe)
                          Input orientation:                          
 ---------------------------------------------------------------------
 Center     Atomic      Atomic             Coordinates (Angstroms)
 Number     Number       Type             X           Y           Z
 ---------------------------------------------------------------------
      1          7           0        0.098107   -1.656016    0.000000
      2          6           0        1.316882   -1.021603    0.000000
      3          7           0        1.206643    0.358867    0.000000
      4          6           0        0.027596    1.084128    0.000000
      5          6           0       -1.196758    0.344771    0.000000
      6          6           0       -1.114186   -0.999718    0.000000
      7          8           0        2.371735   -1.614036    0.000000
      8          8           0        0.088305    2.319064    0.000000
      9          1           0        0.136532   -2.664175    0.000000
     10          1           0        2.072719    0.877801    0.000000
     11          6           0       -2.499321    1.080072    0.000000
     12          1           0       -1.983127   -1.642253    0.000000
     13          1           0       -3.337405    0.381106    0.000000
     14          1           0       -2.581704    1.721949    0.878207
     15          1           0       -2.581704    1.721949   -0.878207
 ---------------------------------------------------------------------
                    Distance matrix (angstroms):
                    1          2          3          4          5
     1  N    0.000000
     2  C    1.374006   0.000000
     3  N    2.299696   1.384864   0.000000
     4  C    2.741051   2.469082   1.384254   0.000000
     5  C    2.383238   2.861008   2.403443   1.430277   0.000000
     6  C    1.378543   2.431166   2.689238   2.376148   1.347023
     7  O    2.274015   1.209831   2.291240   3.574224   4.070757
     8  O    3.975092   3.559418   2.256780   1.236427   2.355679
     9  H    1.008891   2.022688   3.206855   3.749886   3.291112
    10  H    3.212370   2.044267   1.009644   2.055505   3.312643
    11  C    3.772640   4.356655   3.775488   2.526920   1.495773
    12  H    2.081280   3.357867   3.765517   3.387648   2.136970
    13  H    3.994071   4.861068   4.544102   3.437654   2.140955
    14  H    4.400373   4.847401   4.120778   2.826041   2.141481
    15  H    4.400373   4.847401   4.120778   2.826041   2.141481
                    6          7          8          9         10
     6  C    0.000000
     7  O    3.539637   0.000000
     8  O    3.529915   4.547892   0.000000
     9  H    2.081997   2.469600   4.983472   0.000000
    10  H    3.698843   2.509714   2.452577   4.036634   0.000000
    11  C    2.498825   5.566453   2.868957   4.578985   4.576512
    12  H    1.080699   4.354954   4.470220   2.353143   4.774994
    13  H    2.617132   6.047716   3.935883   4.619737   5.432876
    14  H    3.214394   6.036273   2.873455   5.234323   4.811183
    15  H    3.214394   6.036273   2.873455   5.234323   4.811183
                   11         12         13         14         15
    11  C    0.000000
    12  H    2.770832   0.000000
    13  H    1.091301   2.434758   0.000000
    14  H    1.090890   3.528087   1.772059   0.000000
    15  H    1.090890   3.528087   1.772059   1.756414   0.000000
 Stoichiometry    C5H6N2O2
 Framework group  CS[SG(C5H4N2O2),X(H2)]
 Deg. of freedom    26
 Full point group                 CS      NOp   2
 RotChk:  IX=0 Diff= 4.10D-02
 Largest Abelian subgroup         CS      NOp   2
 Largest concise Abelian subgroup CS      NOp   2
                         Standard orientation:                         
 ---------------------------------------------------------------------
 Center     Atomic      Atomic             Coordinates (Angstroms)
 Number     Number       Type             X           Y           Z
 ---------------------------------------------------------------------
      1          7           0        0.149864   -1.650586    0.000000
      2          6           0        1.349748   -0.981132    0.000000
      3          7           0        1.199564    0.395565    0.000000
      4          6           0        0.000000    1.086365    0.000000
      5          6           0       -1.202421    0.311849    0.000000
      6          6           0       -1.080933   -1.029684    0.000000
      7          8           0        2.421321   -1.542757    0.000000
      8          8           0        0.024908    2.322541    0.000000
      9          1           0        0.217479   -2.657209    0.000000
     10          1           0        2.050242    0.939372    0.000000
     11          6           0       -2.525739    1.009106    0.000000
     12          1           0       -1.930896   -1.697122    0.000000
     13          1           0       -3.343222    0.286154    0.000000
     14          1           0       -2.626682    1.648327    0.878207
     15          1           0       -2.626682    1.648327   -0.878207
 ---------------------------------------------------------------------
 Rotational constants (GHZ):           3.2454782           1.4152809           0.9915299
 Leave Link  202 at Tue Nov 22 10:41:33 2022, MaxMem=  1342177280 cpu:               0.3 elap:               0.0
 (Enter /shared/gaussian/g16.b01/AVX2/g16/l301.exe)
 Standard basis: 6-311+G(d,p) (5D, 7F)
 Ernie: Thresh=  0.10000D-02 Tol=  0.10000D-05 Strict=F.
 There are   179 symmetry adapted cartesian basis functions of A'  symmetry.
 There are    64 symmetry adapted cartesian basis functions of A"  symmetry.
 There are   170 symmetry adapted basis functions of A'  symmetry.
 There are    64 symmetry adapted basis functions of A"  symmetry.
   234 basis functions,   372 primitive gaussians,   243 cartesian basis functions
    33 alpha electrons       33 beta electrons
       nuclear repulsion energy       441.2884844108 Hartrees.
 IExCor=20419 DFT=T Ex+Corr=CAM-B3LYP ExCW=0 ScaHFX=  1.000000
 ScaDFX=  1.000000  1.000000  1.000000  0.810000 ScalE2=  1.000000  1.000000
 IRadAn=      5 IRanWt=     -1 IRanGd=            0 ICorTp=0 IEmpDi=  4
 HFx  wShort=  0.000000 wLong=  0.330000 cFull=  0.190000 cShort=  0.000000 cLong=  0.460000
 DFx  wShort=  0.000000 wLong=  0.330000 cFull=  0.190000 cShort=  0.000000 cLong=  0.460000
 NAtoms=   15 NActive=   15 NUniq=   14 SFac= 1.15D+00 NAtFMM=   60 NAOKFM=F Big=F
 Integral buffers will be    131072 words long.
 Raffenetti 2 integral format.
 Two-electron integral symmetry is turned on.
 Leave Link  301 at Tue Nov 22 10:41:34 2022, MaxMem=  1342177280 cpu:               1.4 elap:               0.0
 (Enter /shared/gaussian/g16.b01/AVX2/g16/l302.exe)
 NPDir=0 NMtPBC=     1 NCelOv=     1 NCel=       1 NClECP=     1 NCelD=      1
         NCelK=      1 NCelE2=     1 NClLst=     1 CellRange=     0.0.
 One-electron integrals computed using PRISM.
 One-electron integral symmetry used in STVInt
 NBasis=   234 RedAO= T EigKep=  9.00D-06  NBF=   170    64
 NBsUse=   234 1.00D-06 EigRej= -1.00D+00 NBFU=   170    64
 Precomputing XC quadrature grid using
 IXCGrd= 4 IRadAn=           5 IRanWt=          -1 IRanGd=           0 AccXCQ= 0.00D+00.
 Generated NRdTot=       0 NPtTot=           0 NUsed=           0 NTot=          32
 NSgBfM=   243   243   243   243   243 MxSgAt=    15 MxSgA2=    15.
 Leave Link  302 at Tue Nov 22 10:41:34 2022, MaxMem=  1342177280 cpu:               8.6 elap:               0.2
 (Enter /shared/gaussian/g16.b01/AVX2/g16/l303.exe)
 DipDrv:  MaxL=1.
 Leave Link  303 at Tue Nov 22 10:41:34 2022, MaxMem=  1342177280 cpu:               1.3 elap:               0.0
 (Enter /shared/gaussian/g16.b01/AVX2/g16/l401.exe)
 Initial guess from the checkpoint file:  "thymine6311-opt.chk"
 B after Tr=    -0.000000   -0.000000   -0.000000
         Rot=    0.999896   -0.000000   -0.000000   -0.014420 Ang=  -1.65 deg.
 Guess basis will be translated and rotated to current coordinates.
 JPrj=2 DoOrth=T DoCkMO=T.
 Initial guess orbital symmetries:
       Occupied  (A') (A') (A') (A') (A') (A') (A') (A') (A') (A')
                 (A') (A') (A') (A') (A') (A') (A') (A') (A') (A')
                 (A") (A') (A') (A") (A') (A') (A") (A') (A") (A')
                 (A") (A') (A")
       Virtual   (A") (A') (A') (A') (A") (A") (A') (A') (A') (A")
                 (A") (A') (A') (A') (A") (A') (A') (A") (A') (A")
                 (A') (A") (A') (A') (A') (A') (A') (A') (A') (A")
                 (A") (A') (A') (A') (A') (A') (A") (A') (A') (A')
                 (A') (A') (A') (A") (A') (A') (A') (A') (A') (A')
                 (A") (A') (A') (A') (A') (A') (A") (A') (A') (A")
                 (A") (A') (A") (A') (A") (A') (A') (A') (A') (A')
                 (A') (A') (A') (A") (A') (A') (A") (A') (A') (A')
                 (A') (A") (A') (A') (A") (A') (A") (A") (A') (A')
                 (A") (A") (A') (A') (A') (A") (A') (A") (A') (A')
                 (A") (A') (A") (A') (A') (A') (A") (A") (A') (A')
                 (A") (A') (A") (A') (A') (A') (A') (A") (A') (A')
                 (A') (A') (A") (A') (A") (A') (A') (A') (A') (A')
                 (A") (A') (A") (A') (A") (A") (A') (A') (A") (A")
                 (A') (A') (A") (A') (A') (A') (A') (A') (A") (A")
                 (A") (A') (A') (A') (A") (A') (A") (A') (A') (A')
                 (A") (A') (A') (A') (A") (A') (A") (A') (A') (A')
                 (A') (A') (A') (A') (A") (A") (A') (A") (A') (A')
                 (A') (A') (A') (A') (A') (A") (A") (A') (A') (A')
                 (A') (A') (A') (A') (A') (A') (A') (A') (A') (A')
                 (A')
 The electronic state of the initial guess is 1-A'.
 Generating alternative initial guess.
 ExpMin= 4.38D-02 ExpMax= 8.59D+03 ExpMxC= 1.30D+03 IAcc=3 IRadAn=         5 AccDes= 0.00D+00
 Harris functional with IExCor=20419 and IRadAn=       5 diagonalized for initial guess.
 HarFok:  IExCor=20419 AccDes= 0.00D+00 IRadAn=         5 IDoV= 1 UseB2=F ITyADJ=14
 ICtDFT=  3500011 ScaDFX=  1.000000  1.000000  1.000000  1.000000
 FoFCou: FMM=F IPFlag=           0 FMFlag=      100000 FMFlg1=           0
         NFxFlg=           0 DoJE=T BraDBF=F KetDBF=T FulRan=T
         wScrn=  0.000000 ICntrl=       500 IOpCl=  0 I1Cent=   200000004 NGrid=           0
         NMat0=    1 NMatS0=      1 NMatT0=    0 NMatD0=    1 NMtDS0=    0 NMtDT0=    0
 Petite list used in FoFCou.
 Harris En= -437.694017859742    
 Leave Link  401 at Tue Nov 22 10:41:34 2022, MaxMem=  1342177280 cpu:              13.9 elap:               0.3
 (Enter /shared/gaussian/g16.b01/AVX2/g16/l502.exe)
 Integral symmetry usage will be decided dynamically.
 Closed shell SCF:
 Using DIIS extrapolation, IDIIS=  1040.
 NGot=  1342177280 LenX=  1342043586 LenY=  1341984096
 Requested convergence on RMS density matrix=1.00D-08 within 128 cycles.
 Requested convergence on MAX density matrix=1.00D-06.
 Requested convergence on             energy=1.00D-06.
 No special actions if energy rises.
 Fock matrices will be formed incrementally for  20 cycles.

 Cycle   1  Pass 1  IDiag  1:
 FoFJK:  IHMeth= 1 ICntrl=       0 DoSepK=T KAlg= 0 I1Cent=           0 FoldK=F
 IRaf=         1 NMat=       1 IRICut=       1 DoRegI=T DoRafI=F ISym2E= 1 IDoP0=0 IntGTp=1.
 FoFCou: FMM=F IPFlag=           0 FMFlag=      100000 FMFlg1=           0
         NFxFlg=           0 DoJE=T BraDBF=F KetDBF=F FulRan=T
         wScrn=  0.000000 ICntrl=       500 IOpCl=  0 I1Cent=           0 NGrid=           0
         NMat0=    1 NMatS0=      1 NMatT0=    0 NMatD0=    1 NMtDS0=    0 NMtDT0=    0
 Petite list used in FoFCou.
 E= -454.063043126588    
 DIIS: error= 4.73D-03 at cycle   1 NSaved=   1.
 NSaved= 1 IEnMin= 1 EnMin= -454.063043126588     IErMin= 1 ErrMin= 4.73D-03
 ErrMax= 4.73D-03  0.00D+00 EMaxC= 1.00D-01 BMatC= 9.24D-03 BMatP= 9.24D-03
 IDIUse=3 WtCom= 9.53D-01 WtEn= 4.73D-02
 Coeff-Com:  0.100D+01
 Coeff-En:   0.100D+01
 Coeff:      0.100D+01
 Gap=     0.301 Goal=   None    Shift=    0.000
 GapD=    0.301 DampG=1.000 DampE=1.000 DampFc=1.0000 IDamp=-1.
 RMSDP=2.55D-03 MaxDP=2.35D-01              OVMax= 2.91D-02

 Cycle   2  Pass 1  IDiag  1:
 RMSU=  2.51D-03    CP:  9.78D-01
 E= -454.072000740871     Delta-E=       -0.008957614283 Rises=F Damp=F
 DIIS: error= 1.65D-03 at cycle   2 NSaved=   2.
 NSaved= 2 IEnMin= 2 EnMin= -454.072000740871     IErMin= 2 ErrMin= 1.65D-03
 ErrMax= 1.65D-03  0.00D+00 EMaxC= 1.00D-01 BMatC= 9.03D-04 BMatP= 9.24D-03
 IDIUse=3 WtCom= 9.83D-01 WtEn= 1.65D-02
 Coeff-Com:  0.953D-01 0.905D+00
 Coeff-En:   0.000D+00 0.100D+01
 Coeff:      0.938D-01 0.906D+00
 Gap=     0.298 Goal=   None    Shift=    0.000
 RMSDP=6.59D-04 MaxDP=5.83D-02 DE=-8.96D-03 OVMax= 1.22D-02

 Cycle   3  Pass 1  IDiag  1:
 RMSU=  5.37D-04    CP:  9.91D-01  1.11D+00
 E= -454.072084340221     Delta-E=       -0.000083599349 Rises=F Damp=F
 DIIS: error= 2.61D-03 at cycle   3 NSaved=   3.
 NSaved= 3 IEnMin= 3 EnMin= -454.072084340221     IErMin= 2 ErrMin= 1.65D-03
 ErrMax= 2.61D-03  0.00D+00 EMaxC= 1.00D-01 BMatC= 9.90D-04 BMatP= 9.03D-04
 IDIUse=3 WtCom= 9.74D-01 WtEn= 2.61D-02
 Coeff-Com: -0.325D-01 0.521D+00 0.512D+00
 Coeff-En:   0.000D+00 0.466D+00 0.534D+00
 Coeff:     -0.316D-01 0.519D+00 0.512D+00
 Gap=     0.298 Goal=   None    Shift=    0.000
 RMSDP=4.10D-04 MaxDP=3.44D-02 DE=-8.36D-05 OVMax= 8.37D-03

 Cycle   4  Pass 1  IDiag  1:
 RMSU=  1.72D-04    CP:  9.79D-01  1.11D+00  4.87D-01
 E= -454.072724328670     Delta-E=       -0.000639988449 Rises=F Damp=F
 DIIS: error= 6.84D-04 at cycle   4 NSaved=   4.
 NSaved= 4 IEnMin= 4 EnMin= -454.072724328670     IErMin= 4 ErrMin= 6.84D-04
 ErrMax= 6.84D-04  0.00D+00 EMaxC= 1.00D-01 BMatC= 6.24D-05 BMatP= 9.03D-04
 IDIUse=3 WtCom= 9.93D-01 WtEn= 6.84D-03
 Coeff-Com: -0.215D-01 0.133D+00 0.248D+00 0.641D+00
 Coeff-En:   0.000D+00 0.000D+00 0.000D+00 0.100D+01
 Coeff:     -0.213D-01 0.132D+00 0.246D+00 0.643D+00
 Gap=     0.297 Goal=   None    Shift=    0.000
 RMSDP=1.03D-04 MaxDP=7.96D-03 DE=-6.40D-04 OVMax= 2.28D-03

 Cycle   5  Pass 1  IDiag  1:
 RMSU=  5.02D-05    CP:  9.81D-01  1.12D+00  6.04D-01  8.84D-01
 E= -454.072769917131     Delta-E=       -0.000045588461 Rises=F Damp=F
 DIIS: error= 1.42D-04 at cycle   5 NSaved=   5.
 NSaved= 5 IEnMin= 5 EnMin= -454.072769917131     IErMin= 5 ErrMin= 1.42D-04
 ErrMax= 1.42D-04  0.00D+00 EMaxC= 1.00D-01 BMatC= 5.85D-06 BMatP= 6.24D-05
 IDIUse=3 WtCom= 9.99D-01 WtEn= 1.42D-03
 Coeff-Com: -0.480D-02-0.230D-02 0.489D-01 0.294D+00 0.664D+00
 Coeff-En:   0.000D+00 0.000D+00 0.000D+00 0.000D+00 0.100D+01
 Coeff:     -0.480D-02-0.230D-02 0.488D-01 0.293D+00 0.665D+00
 Gap=     0.297 Goal=   None    Shift=    0.000
 RMSDP=2.58D-05 MaxDP=1.52D-03 DE=-4.56D-05 OVMax= 6.03D-04

 Cycle   6  Pass 1  IDiag  1:
 RMSU=  2.07D-05    CP:  9.81D-01  1.12D+00  6.19D-01  9.27D-01  1.10D+00
 E= -454.072774765536     Delta-E=       -0.000004848405 Rises=F Damp=F
 DIIS: error= 5.73D-05 at cycle   6 NSaved=   6.
 NSaved= 6 IEnMin= 6 EnMin= -454.072774765536     IErMin= 6 ErrMin= 5.73D-05
 ErrMax= 5.73D-05  0.00D+00 EMaxC= 1.00D-01 BMatC= 6.37D-07 BMatP= 5.85D-06
 IDIUse=1 WtCom= 1.00D+00 WtEn= 0.00D+00
 Coeff-Com: -0.406D-04-0.159D-01-0.320D-02 0.841D-01 0.311D+00 0.624D+00
 Coeff:     -0.406D-04-0.159D-01-0.320D-02 0.841D-01 0.311D+00 0.624D+00
 Gap=     0.297 Goal=   None    Shift=    0.000
 RMSDP=1.19D-05 MaxDP=9.21D-04 DE=-4.85D-06 OVMax= 3.45D-04

 Cycle   7  Pass 1  IDiag  1:
 RMSU=  8.48D-06    CP:  9.81D-01  1.13D+00  6.21D-01  9.52D-01  1.17D+00
                    CP:  7.91D-01
 E= -454.072775279605     Delta-E=       -0.000000514068 Rises=F Damp=F
 DIIS: error= 3.70D-05 at cycle   7 NSaved=   7.
 NSaved= 7 IEnMin= 7 EnMin= -454.072775279605     IErMin= 7 ErrMin= 3.70D-05
 ErrMax= 3.70D-05  0.00D+00 EMaxC= 1.00D-01 BMatC= 1.11D-07 BMatP= 6.37D-07
 IDIUse=1 WtCom= 1.00D+00 WtEn= 0.00D+00
 Coeff-Com:  0.691D-03-0.864D-02-0.106D-01 0.903D-03 0.588D-01 0.329D+00
 Coeff-Com:  0.630D+00
 Coeff:      0.691D-03-0.864D-02-0.106D-01 0.903D-03 0.588D-01 0.329D+00
 Coeff:      0.630D+00
 Gap=     0.297 Goal=   None    Shift=    0.000
 RMSDP=6.00D-06 MaxDP=5.01D-04 DE=-5.14D-07 OVMax= 8.27D-05

 Cycle   8  Pass 1  IDiag  1:
 RMSU=  2.79D-06    CP:  9.81D-01  1.13D+00  6.19D-01  9.62D-01  1.18D+00
                    CP:  9.43D-01  8.72D-01
 E= -454.072775373842     Delta-E=       -0.000000094237 Rises=F Damp=F
 DIIS: error= 6.68D-06 at cycle   8 NSaved=   8.
 NSaved= 8 IEnMin= 8 EnMin= -454.072775373842     IErMin= 8 ErrMin= 6.68D-06
 ErrMax= 6.68D-06  0.00D+00 EMaxC= 1.00D-01 BMatC= 7.04D-09 BMatP= 1.11D-07
 IDIUse=1 WtCom= 1.00D+00 WtEn= 0.00D+00
 Coeff-Com:  0.254D-03-0.166D-02-0.404D-02-0.722D-02-0.124D-01 0.639D-01
 Coeff-Com:  0.225D+00 0.736D+00
 Coeff:      0.254D-03-0.166D-02-0.404D-02-0.722D-02-0.124D-01 0.639D-01
 Coeff:      0.225D+00 0.736D+00
 Gap=     0.297 Goal=   None    Shift=    0.000
 RMSDP=1.96D-06 MaxDP=1.29D-04 DE=-9.42D-08 OVMax= 4.62D-05

 Cycle   9  Pass 1  IDiag  1:
 RMSU=  7.45D-07    CP:  9.81D-01  1.13D+00  6.18D-01  9.66D-01  1.19D+00
                    CP:  9.41D-01  1.01D+00  1.09D+00
 E= -454.072775382269     Delta-E=       -0.000000008427 Rises=F Damp=F
 DIIS: error= 4.00D-06 at cycle   9 NSaved=   9.
 NSaved= 9 IEnMin= 9 EnMin= -454.072775382269     IErMin= 9 ErrMin= 4.00D-06
 ErrMax= 4.00D-06  0.00D+00 EMaxC= 1.00D-01 BMatC= 1.20D-09 BMatP= 7.04D-09
 IDIUse=1 WtCom= 1.00D+00 WtEn= 0.00D+00
 Coeff-Com:  0.557D-05 0.689D-03 0.852D-04-0.173D-02-0.135D-01-0.248D-01
 Coeff-Com: -0.306D-01 0.278D+00 0.791D+00
 Coeff:      0.557D-05 0.689D-03 0.852D-04-0.173D-02-0.135D-01-0.248D-01
 Coeff:     -0.306D-01 0.278D+00 0.791D+00
 Gap=     0.297 Goal=   None    Shift=    0.000
 RMSDP=7.96D-07 MaxDP=5.82D-05 DE=-8.43D-09 OVMax= 3.44D-05

 Cycle  10  Pass 1  IDiag  1:
 RMSU=  2.35D-07    CP:  9.81D-01  1.13D+00  6.17D-01  9.67D-01  1.19D+00
                    CP:  9.54D-01  1.03D+00  1.20D+00  1.11D+00
 E= -454.072775383956     Delta-E=       -0.000000001687 Rises=F Damp=F
 DIIS: error= 9.97D-07 at cycle  10 NSaved=  10.
 NSaved=10 IEnMin=10 EnMin= -454.072775383956     IErMin=10 ErrMin= 9.97D-07
 ErrMax= 9.97D-07  0.00D+00 EMaxC= 1.00D-01 BMatC= 2.19D-10 BMatP= 1.20D-09
 IDIUse=1 WtCom= 1.00D+00 WtEn= 0.00D+00
 Coeff-Com: -0.327D-04 0.592D-03 0.554D-03 0.460D-05-0.617D-02-0.197D-01
 Coeff-Com: -0.449D-01 0.441D-01 0.370D+00 0.655D+00
 Coeff:     -0.327D-04 0.592D-03 0.554D-03 0.460D-05-0.617D-02-0.197D-01
 Coeff:     -0.449D-01 0.441D-01 0.370D+00 0.655D+00
 Gap=     0.297 Goal=   None    Shift=    0.000
 RMSDP=3.44D-07 MaxDP=3.14D-05 DE=-1.69D-09 OVMax= 6.28D-06

 Cycle  11  Pass 1  IDiag  1:
 RMSU=  9.56D-08    CP:  9.81D-01  1.13D+00  6.16D-01  9.68D-01  1.19D+00
                    CP:  9.53D-01  1.04D+00  1.22D+00  1.27D+00  1.13D+00
 E= -454.072775384217     Delta-E=       -0.000000000261 Rises=F Damp=F
 DIIS: error= 5.95D-07 at cycle  11 NSaved=  11.
 NSaved=11 IEnMin=11 EnMin= -454.072775384217     IErMin=11 ErrMin= 5.95D-07
 ErrMax= 5.95D-07  0.00D+00 EMaxC= 1.00D-01 BMatC= 1.34D-11 BMatP= 2.19D-10
 IDIUse=1 WtCom= 1.00D+00 WtEn= 0.00D+00
 Coeff-Com: -0.785D-05 0.452D-04 0.135D-03 0.362D-03 0.272D-03-0.674D-03
 Coeff-Com: -0.932D-02-0.294D-01 0.714D-02 0.178D+00 0.853D+00
[...]
 ! D13   D(2,3,4,5)              0.0            -DE/DX =    0.0                 !
 ! D14   D(2,3,4,8)            180.0            -DE/DX =    0.0                 !
 ! D15   D(10,3,4,5)           180.0            -DE/DX =    0.0                 !
 ! D16   D(10,3,4,8)             0.0            -DE/DX =    0.0                 !
 ! D17   D(3,4,5,6)              0.0            -DE/DX =    0.0                 !
 ! D18   D(3,4,5,11)           180.0            -DE/DX =    0.0                 !
 ! D19   D(8,4,5,6)            180.0            -DE/DX =    0.0                 !
 ! D20   D(8,4,5,11)             0.0            -DE/DX =    0.0                 !
 ! D21   D(4,5,6,1)              0.0            -DE/DX =    0.0                 !
 ! D22   D(4,5,6,12)           180.0            -DE/DX =    0.0                 !
 ! D23   D(11,5,6,1)           180.0            -DE/DX =    0.0                 !
 ! D24   D(11,5,6,12)            0.0            -DE/DX =    0.0                 !
 ! D25   D(4,5,11,13)          180.0            -DE/DX =    0.0                 !
 ! D26   D(4,5,11,14)          -59.1211         -DE/DX =    0.0                 !
 ! D27   D(4,5,11,15)           59.1211         -DE/DX =    0.0                 !
 ! D28   D(6,5,11,13)            0.0            -DE/DX =    0.0                 !
 ! D29   D(6,5,11,14)          120.8789         -DE/DX =    0.0                 !
 ! D30   D(6,5,11,15)         -120.8789         -DE/DX =    0.0                 !
 --------------------------------------------------------------------------------
 Lowest energy point so far.  Saving SCF results.
 Largest change from initial coordinates is atom    8       0.092 Angstoms.
 GradGradGradGradGradGradGradGradGradGradGradGradGradGradGradGradGradGrad

 Leave Link  103 at Tue Nov 22 10:42:10 2022, MaxMem=  1342177280 cpu:               1.1 elap:               0.0
 (Enter /shared/gaussian/g16.b01/AVX2/g16/l202.exe)
                          Input orientation:                          
 ---------------------------------------------------------------------
 Center     Atomic      Atomic             Coordinates (Angstroms)
 Number     Number       Type             X           Y           Z
 ---------------------------------------------------------------------
      1          7           0        0.099425   -1.664540    0.000000
      2          6           0        1.320577   -1.022677    0.000000
      3          7           0        1.203881    0.351700    0.000000
      4          6           0        0.031407    1.113416    0.000000
      5          6           0       -1.208161    0.332702    0.000000
      6          6           0       -1.109683   -1.004254    0.000000
      7          8           0        2.377683   -1.608010    0.000000
      8          8           0        0.087282    2.323104    0.000000
      9          1           0        0.142176   -2.671510    0.000000
     10          1           0        2.074491    0.867278    0.000000
     11          6           0       -2.504412    1.078405    0.000000
     12          1           0       -1.981786   -1.645838    0.000000
     13          1           0       -3.351239    0.391042    0.000000
     14          1           0       -2.578664    1.725544    0.876132
     15          1           0       -2.578664    1.725544   -0.876132
 ---------------------------------------------------------------------
                    Distance matrix (angstroms):
                    1          2          3          4          5
     1  N    0.000000
     2  C    1.379565   0.000000
     3  N    2.298923   1.379323   0.000000
     4  C    2.778788   2.494965   1.398179   0.000000
     5  C    2.387207   2.869071   2.412116   1.464938   0.000000
     6  C    1.377650   2.430330   2.681639   2.405538   1.340578
     7  O    2.278959   1.208341   2.284355   3.593211   4.077332
     8  O    3.987663   3.565847   2.265662   1.210978   2.374842
     9  H    1.007877   2.026642   3.204218   3.786546   3.293736
    10  H    3.211073   2.034777   1.011822   2.057857   3.325895
    11  C    3.782025   4.364067   3.778827   2.536060   1.495439
    12  H    2.081295   3.360644   3.760137   3.415615   2.124409
    13  H    4.016528   4.881031   4.555290   3.458919   2.143872
    14  H    4.408224   4.850196   4.118580   2.820422   2.141470
    15  H    4.408224   4.850196   4.118580   2.820422   2.141470
                    6          7          8          9         10
     6  C    0.000000
     7  O    3.539243   0.000000
     8  O    3.536105   4.549680   0.000000
     9  H    2.084920   2.475585   4.994915   0.000000
    10  H    3.693453   2.493788   2.463418   4.031980   0.000000
    11  C    2.506539   5.572403   2.875092   4.589802   4.583768
    12  H    1.082679   4.359633   4.475884   2.358648   4.771701
    13  H    2.640346   6.067681   3.944146   4.645770   5.446591
    14  H    3.221383   6.037016   2.869138   5.244489   4.812076
    15  H    3.221383   6.037016   2.869138   5.244489   4.812076
                   11         12         13         14         15
    11  C    0.000000
    12  H    2.773920   0.000000
    13  H    1.090680   2.454441   0.000000
    14  H    1.091746   3.534132   1.773520   0.000000
    15  H    1.091746   3.534132   1.773520   1.752263   0.000000
 Stoichiometry    C5H6N2O2
 Framework group  CS[SG(C5H4N2O2),X(H2)]
 Deg. of freedom    26
 Full point group                 CS      NOp   2
 RotChk:  IX=0 Diff= 4.14D-17
 Largest Abelian subgroup         CS      NOp   2
 Largest concise Abelian subgroup CS      NOp   2
                         Standard orientation:                         
 ---------------------------------------------------------------------
 Center     Atomic      Atomic             Coordinates (Angstroms)
 Number     Number       Type             X           Y           Z
 ---------------------------------------------------------------------
      1          7           0        0.155734   -1.659062    0.000000
      2          6           0        1.356002   -0.978945    0.000000
      3          7           0        1.195950    0.391060    0.000000
      4          6           0       -0.000000    1.115359    0.000000
      5          6           0       -1.214288    0.295879    0.000000
      6          6           0       -1.073627   -1.037299    0.000000
      7          8           0        2.431070   -1.530594    0.000000
      8          8           0        0.017636    2.326209    0.000000
      9          1           0        0.230273   -2.664179    0.000000
     10          1           0        2.049840    0.933881    0.000000
     11          6           0       -2.533447    1.000264    0.000000
     12          1           0       -1.925029   -1.706110    0.000000
     13          1           0       -3.358140    0.286495    0.000000
     14          1           0       -2.628104    1.644735    0.876132
     15          1           0       -2.628104    1.644735   -0.876132
 ---------------------------------------------------------------------
 Rotational constants (GHZ):           3.2246808           1.4105953           0.9872587
 Leave Link  202 at Tue Nov 22 10:42:10 2022, MaxMem=  1342177280 cpu:               0.3 elap:               0.0
 (Enter /shared/gaussian/g16.b01/AVX2/g16/l601.exe)
 Copying SCF densities to generalized density rwf, IOpCl= 0 IROHF=0.

 **********************************************************************

            Population analysis using the SCF Density.

 **********************************************************************

 Orbital symmetries:
       Occupied  (A') (A') (A') (A') (A') (A') (A') (A') (A') (A')
                 (A') (A') (A') (A') (A') (A') (A') (A') (A') (A')
                 (A") (A') (A') (A') (A") (A') (A") (A') (A") (A')
                 (A") (A') (A")
       Virtual   (A") (A') (A') (A') (A") (A") (A') (A') (A') (A")
                 (A") (A') (A') (A') (A") (A') (A') (A') (A") (A")
                 (A') (A") (A') (A') (A') (A') (A') (A') (A") (A')
                 (A") (A') (A') (A') (A') (A") (A') (A') (A') (A')
                 (A') (A') (A") (A') (A') (A') (A') (A') (A') (A')
                 (A") (A') (A') (A') (A') (A') (A') (A") (A') (A")
                 (A") (A') (A") (A') (A") (A') (A') (A') (A') (A')
                 (A') (A') (A') (A") (A') (A') (A") (A') (A') (A')
                 (A') (A") (A') (A') (A") (A') (A") (A") (A') (A")
                 (A') (A") (A') (A') (A') (A") (A') (A") (A') (A')
                 (A") (A') (A") (A') (A') (A') (A") (A") (A') (A')
                 (A") (A') (A") (A') (A') (A') (A') (A") (A') (A')
                 (A') (A') (A") (A') (A") (A') (A') (A') (A') (A')
                 (A") (A') (A") (A") (A') (A') (A") (A') (A") (A')
                 (A") (A') (A") (A') (A') (A') (A') (A') (A") (A")
                 (A") (A') (A') (A") (A') (A') (A') (A") (A') (A')
                 (A") (A') (A') (A') (A") (A") (A') (A') (A') (A')
                 (A') (A') (A') (A') (A") (A") (A') (A") (A') (A')
                 (A') (A') (A') (A') (A') (A") (A") (A') (A') (A')
                 (A') (A') (A') (A') (A') (A') (A') (A') (A') (A')
                 (A')
 The electronic state is 1-A'.
 Alpha  occ. eigenvalues --  -19.18506 -19.18389 -14.46254 -14.44870 -10.40961
 Alpha  occ. eigenvalues --  -10.37655 -10.33047 -10.27865 -10.25540  -1.17874
 Alpha  occ. eigenvalues --   -1.14626  -1.07595  -1.02248  -0.91389  -0.80632
 Alpha  occ. eigenvalues --   -0.76868  -0.75140  -0.65566  -0.65174  -0.60221
 Alpha  occ. eigenvalues --   -0.57170  -0.55457  -0.52377  -0.51058  -0.50867
 Alpha  occ. eigenvalues --   -0.48264  -0.47949  -0.46529  -0.43743  -0.37633
 Alpha  occ. eigenvalues --   -0.36263  -0.34676  -0.31071
 Alpha virt. eigenvalues --   -0.00845   0.00927   0.03499   0.03649   0.04544
 Alpha virt. eigenvalues --    0.05658   0.06162   0.07298   0.07681   0.08723
 Alpha virt. eigenvalues --    0.09828   0.10048   0.10770   0.12155   0.13774
 Alpha virt. eigenvalues --    0.14345   0.14806   0.15422   0.15719   0.16976
 Alpha virt. eigenvalues --    0.17092   0.18675   0.18811   0.19696   0.20870
 Alpha virt. eigenvalues --    0.21365   0.22914   0.23796   0.24088   0.24159
 Alpha virt. eigenvalues --    0.24435   0.25328   0.25881   0.28100   0.29063
 Alpha virt. eigenvalues --    0.29995   0.30094   0.30405   0.30822   0.32611
 Alpha virt. eigenvalues --    0.33363   0.34812   0.35098   0.35576   0.37105
 Alpha virt. eigenvalues --    0.38118   0.39543   0.41525   0.42126   0.43601
 Alpha virt. eigenvalues --    0.46572   0.47768   0.52072   0.53990   0.55891
 Alpha virt. eigenvalues --    0.58123   0.59470   0.59954   0.62667   0.63067
 Alpha virt. eigenvalues --    0.63439   0.65822   0.66157   0.68736   0.70141
 Alpha virt. eigenvalues --    0.70278   0.72058   0.74002   0.75508   0.77956
 Alpha virt. eigenvalues --    0.78642   0.82707   0.84090   0.86011   0.86553
 Alpha virt. eigenvalues --    0.89891   0.90219   0.91623   0.92976   0.96832
 Alpha virt. eigenvalues --    0.98400   1.01521   1.02854   1.08026   1.08172
 Alpha virt. eigenvalues --    1.13639   1.16821   1.17270   1.17730   1.20320
 Alpha virt. eigenvalues --    1.20658   1.23891   1.24655   1.25106   1.25925
 Alpha virt. eigenvalues --    1.28923   1.29391   1.33548   1.37331   1.40453
 Alpha virt. eigenvalues --    1.42992   1.48404   1.52180   1.55441   1.58572
 Alpha virt. eigenvalues --    1.59775   1.61773   1.63305   1.63427   1.68253
 Alpha virt. eigenvalues --    1.70549   1.71729   1.73410   1.77177   1.78492
 Alpha virt. eigenvalues --    1.83052   1.85402   1.85621   1.88496   1.89484
 Alpha virt. eigenvalues --    1.92067   1.93859   1.98844   2.02864   2.04311
 Alpha virt. eigenvalues --    2.05662   2.09300   2.15444   2.20097   2.21158
 Alpha virt. eigenvalues --    2.28933   2.31319   2.35484   2.38984   2.39352
 Alpha virt. eigenvalues --    2.46292   2.47297   2.52487   2.52694   2.58036
 Alpha virt. eigenvalues --    2.58559   2.62207   2.64493   2.65543   2.70245
 Alpha virt. eigenvalues --    2.71617   2.75087   2.81765   2.82305   2.85330
 Alpha virt. eigenvalues --    2.87511   2.91888   2.93201   2.95545   2.95556
 Alpha virt. eigenvalues --    2.97723   3.00526   3.00837   3.04891   3.05656
 Alpha virt. eigenvalues --    3.05973   3.18188   3.22170   3.36280   3.43290
 Alpha virt. eigenvalues --    3.44129   3.47040   3.50826   3.54682   3.61887
 Alpha virt. eigenvalues --    3.65604   3.69249   3.71995   3.77932   3.85673
 Alpha virt. eigenvalues --    3.88786   3.91723   3.93505   3.98079   4.09795
 Alpha virt. eigenvalues --    4.27885   4.37188   4.77830   4.87809   4.93666
 Alpha virt. eigenvalues --    5.10721   5.13409   5.21872   5.27130   5.41976
 Alpha virt. eigenvalues --    5.82884   5.87277  23.73032  23.90409  23.95199
 Alpha virt. eigenvalues --   24.01724  24.24756  35.62291  35.67855  50.05646
 Alpha virt. eigenvalues --   50.10687
          Condensed to atoms (all electrons):
               1          2          3          4          5          6
     1  N    7.085708   0.301348  -0.269981   0.194354   0.233085  -0.333051
     2  C    0.301348   5.038359   0.157818  -0.231765   0.389685  -0.455968
     3  N   -0.269981   0.157818   7.413103  -0.166890  -0.384201   0.572280
     4  C    0.194354  -0.231765  -0.166890   6.989659  -0.484346  -0.553535
     5  C    0.233085   0.389685  -0.384201  -0.484346   7.881864  -1.893583
     6  C   -0.333051  -0.455968   0.572280  -0.553535  -1.893583   8.746894
     7  O   -0.133808   0.399727  -0.100084   0.025638  -0.038873   0.068191
     8  O    0.000256   0.035246  -0.103011   0.349035  -0.103978  -0.030252
     9  H    0.344795  -0.022555   0.011846  -0.008518   0.001485  -0.010488
    10  H    0.012207  -0.021225   0.325549  -0.007545   0.027009  -0.024767
    11  C    0.006084  -0.021901  -0.000589  -0.222911  -0.172597  -0.105020
    12  H   -0.049015   0.011138  -0.005232  -0.002750   0.044225   0.322826
    13  H   -0.000998   0.001367  -0.000173  -0.018323  -0.159431   0.053181
    14  H    0.001300   0.000938  -0.000382   0.014487   0.033781  -0.029764
    15  H    0.001300   0.000938  -0.000382   0.014487   0.033781  -0.029764
               7          8          9         10         11         12
     1  N   -0.133808   0.000256   0.344795   0.012207   0.006084  -0.049015
     2  C    0.399727   0.035246  -0.022555  -0.021225  -0.021901   0.011138
     3  N   -0.100084  -0.103011   0.011846   0.325549  -0.000589  -0.005232
     4  C    0.025638   0.349035  -0.008518  -0.007545  -0.222911  -0.002750
     5  C   -0.038873  -0.103978   0.001485   0.027009  -0.172597   0.044225
     6  C    0.068191  -0.030252  -0.010488  -0.024767  -0.105020   0.322826
     7  O    8.126957   0.001582   0.011439   0.007458   0.004441  -0.000133
     8  O    0.001582   8.121174  -0.000040   0.009051   0.059880  -0.000061
     9  H    0.011439  -0.000040   0.341455  -0.000083   0.000487  -0.004488
    10  H    0.007458   0.009051  -0.000083   0.320744   0.004138   0.000070
    11  C    0.004441   0.059880   0.000487   0.004138   5.798495   0.029993
    12  H   -0.000133  -0.000061  -0.004488   0.000070   0.029993   0.507237
    13  H   -0.000022   0.002547  -0.000021   0.000002   0.486941   0.001712
    14  H   -0.000014  -0.003015   0.000005   0.000007   0.349341   0.000150
    15  H   -0.000014  -0.003015   0.000005   0.000007   0.349341   0.000150
              13         14         15
     1  N   -0.000998   0.001300   0.001300
     2  C    0.001367   0.000938   0.000938
     3  N   -0.000173  -0.000382  -0.000382
     4  C   -0.018323   0.014487   0.014487
     5  C   -0.159431   0.033781   0.033781
     6  C    0.053181  -0.029764  -0.029764
     7  O   -0.000022  -0.000014  -0.000014
     8  O    0.002547  -0.003015  -0.003015
     9  H   -0.000021   0.000005   0.000005
    10  H    0.000002   0.000007   0.000007
    11  C    0.486941   0.349341   0.349341
    12  H    0.001712   0.000150   0.000150
    13  H    0.554388  -0.025427  -0.025427
    14  H   -0.025427   0.518364  -0.030100
    15  H   -0.025427  -0.030100   0.518364
 Mulliken charges:
               1
     1  N   -0.393585
     2  C    0.416849
     3  N   -0.449668
     4  C    0.108923
     5  C    0.592095
     6  C   -0.297182
     7  O   -0.372486
     8  O   -0.335398
     9  H    0.334676
    10  H    0.347380
    11  C   -0.566122
    12  H    0.144178
    13  H    0.129683
    14  H    0.170329
    15  H    0.170329
 Sum of Mulliken charges =  -0.00000
 Mulliken charges with hydrogens summed into heavy atoms:
               1
     1  N   -0.058908
     2  C    0.416849
     3  N   -0.102289
     4  C    0.108923
     5  C    0.592095
     6  C   -0.153004
     7  O   -0.372486
     8  O   -0.335398
    11  C   -0.095782
 Electronic spatial extent (au):  <R**2>=           1130.5506
 Charge=              0.0000 electrons
 Dipole moment (field-independent basis, Debye):
    X=             -3.5246    Y=             -2.8845    Z=             -0.0000  Tot=              4.5544
 Quadrupole moment (field-independent basis, Debye-Ang):
   XX=            -55.0426   YY=            -56.7035   ZZ=            -52.9440
   XY=              8.5553   XZ=             -0.0000   YZ=              0.0000
 Traceless Quadrupole moment (field-independent basis, Debye-Ang):
   XX=             -0.1459   YY=             -1.8068   ZZ=              1.9527
   XY=              8.5553   XZ=             -0.0000   YZ=              0.0000
 Octapole moment (field-independent basis, Debye-Ang**2):
  XXX=            -21.8381  YYY=            -44.5569  ZZZ=             -0.0000  XYY=            -11.3808
  XXY=             23.2207  XXZ=              0.0000  XZZ=              3.7780  YZZ=              2.0091
  YYZ=              0.0000  XYZ=             -0.0000
 Hexadecapole moment (field-independent basis, Debye-Ang**3):
 XXXX=           -827.2072 YYYY=           -626.8927 ZZZZ=            -60.2962 XXXY=            188.4183
 XXXZ=             -0.0000 YYYX=            141.9421 YYYZ=              0.0000 ZZZX=             -0.0000
 ZZZY=              0.0000 XXYY=           -248.6693 XXZZ=           -143.0275 YYZZ=           -112.0408
 XXYZ=              0.0000 YYXZ=             -0.0000 ZZXY=             36.5366
 N-N= 4.406333157633D+02 E-N=-1.943026146840D+03  KE= 4.526887945282D+02
 Symmetry A'   KE= 4.340410746360D+02
 Symmetry A"   KE= 1.864771989229D+01
 No NMR shielding tensors so no spin-rotation constants.
 Leave Link  601 at Tue Nov 22 10:42:10 2022, MaxMem=  1342177280 cpu:               6.4 elap:               0.1
 (Enter /shared/gaussian/g16.b01/AVX2/g16/l9999.exe)
 1\1\GINC-BAKU1\FOpt\RCAM-B3LYP\6-311+G(d,p)\C5H6N2O2\ROOT\22-Nov-2022\
 0\\#p opt cam-b3lyp/6-311+G(d,p) symm=loose\\Thymine\\0,1\N,0.09942493
 25,-1.6645401518,0.\C,1.3205770151,-1.022676952,0.\N,1.2038806868,0.35
 17002492,0.\C,0.0314069886,1.1134156122,0.\C,-1.2081608463,0.332701666
 ,0.\C,-1.1096828087,-1.0042541114,0.\O,2.3776828029,-1.6080099759,0.\O
 ,0.0872822757,2.3231039049,0.\H,0.1421762735,-2.6715098357,0.\H,2.0744
 911823,0.8672782462,0.\C,-2.5044118117,1.0784045088,0.\H,-1.9817858062
 ,-1.6458377579,0.\H,-3.3512390196,0.391042225,0.\H,-2.5786639324,1.725
 5441862,0.8761315871\H,-2.5786639324,1.7255441862,-0.8761315871\\Versi
 on=ES64L-G16RevB.01\State=1-A'\HF=-454.0747115\RMSD=5.921e-09\RMSF=2.2
 63e-05\Dipole=-1.4218284,-1.090465,0.\Quadrupole=0.2919298,-1.7437148,
 1.451785,6.3089836,0.,0.\PG=CS [SG(C5H4N2O2),X(H2)]\\@


 I DON'T EXACTLY UNDERSTAND WHAT YOU ARE SAYING,
 BUT YOU ARE ABSOLUTELY RIGHT.
     M.S.GORDON, IN A NDSU FACULTY MEETING
 Job cpu time:       0 days  0 hours 40 minutes 15.1 seconds.
 Elapsed time:       0 days  0 hours  0 minutes 48.0 seconds.
 File lengths (MBytes):  RWF=     39 Int=      0 D2E=      0 Chk=      5 Scr=      1
 Normal termination of Gaussian 16 at Tue Nov 22 10:42:10 2022.
