 Entering Gaussian System, Link 0=/shared/gaussian/g16.b01/AVX2/g16/g16
 Initial command:
 /shared/gaussian/g16.b01/AVX2/g16/l1.exe "/scratch/marlene/SCRGAU.111402.Thymine6311-freq-solv/Gau-80364.inp" -scrdir="/scratch/marlene/SCRGAU.111402.Thymine6311-freq-solv/"
 Entering Link 1 = /shared/gaussian/g16.b01/AVX2/g16/l1.exe PID=     80365.
  
 Copyright (c) 1988-2017, Gaussian, Inc.  All Rights Reserved.
  
 This is part of the Gaussian(R) 16 program.  It is based on
 the Gaussian(R) 09 system (copyright 2009, Gaussian, Inc.),
 the Gaussian(R) 03 system (copyright 2003, Gaussian, Inc.),
 the Gaussian(R) 98 system (copyright 1998, Gaussian, Inc.),
 the Gaussian(R) 94 system (copyright 1995, Gaussian, Inc.),
 the Gaussian 92(TM) system (copyright 1992, Gaussian, Inc.),
 the Gaussian 90(TM) system (copyright 1990, Gaussian, Inc.),
 the Gaussian 88(TM) system (copyright 1988, Gaussian, Inc.),
 the Gaussian 86(TM) system (copyright 1986, Carnegie Mellon
 University), and the Gaussian 82(TM) system (copyright 1983,
 Carnegie Mellon University). Gaussian is a federally registered
 trademark of Gaussian, Inc.
  
 This software contains proprietary and confidential information,
 including trade secrets, belonging to Gaussian, Inc.
  
 This software is provided under written license and may be
 used, copied, transmitted, or stored only in accord with that
 written license.
  
 The following legend is applicable only to US Government
 contracts under FAR:
  
                    RESTRICTED RIGHTS LEGEND
  
 Use, reproduction and disclosure by the US Government is
 subject to restrictions as set forth in subparagraphs (a)
 and (c) of the Commercial Computer Software - Restricted
 Rights clause in FAR 52.227-19.
  
 Gaussian, Inc.
 340 Quinnipiac St., Bldg. 40, Wallingford CT 06492
  
  
 ---------------------------------------------------------------
 Warning -- This program may not be used in any manner that
 competes with the business of Gaussian, Inc. or will provide
 assistance to any competitor of Gaussian, Inc.  The licensee
 of this program is prohibited from giving any competitor of
 Gaussian, Inc. access to this program.  By using this program,
 the user acknowledges that Gaussian, Inc. is engaged in the
 business of creating and licensing software in the field of
 computational chemistry and represents and warrants to the
 licensee that it is not a competitor of Gaussian, Inc. and that
 it will not use this program in any manner prohibited above.
 ---------------------------------------------------------------
  

 Cite this work as:
 Gaussian 16, Revision B.01,
 M. J. Frisch, G. W. Trucks, H. B. Schlegel, G. E. Scuseria, 
 M. A. Robb, J. R. Cheeseman, G. Scalmani, V. Barone, 
 G. A. Petersson, H. Nakatsuji, X. Li, M. Caricato, A. V. Marenich, 
 J. Bloino, B. G. Janesko, R. Gomperts, B. Mennucci, H. P. Hratchian, 
 J. V. Ortiz, A. F. Izmaylov, J. L. Sonnenberg, D. Williams-Young, 
 F. Ding, F. Lipparini, F. Egidi, J. Goings, B. Peng, A. Petrone, 
 T. Henderson, D. Ranasinghe, V. G. Zakrzewski, J. Gao, N. Rega, 
 G. Zheng, W. Liang, M. Hada, M. Ehara, K. Toyota, R. Fukuda, 
 J. Hasegawa, M. Ishida, T. Nakajima, Y. Honda, O. Kitao, H. Nakai, 
 T. Vreven, K. Throssell, J. A. Montgomery, Jr., J. E. Peralta, 
 F. Ogliaro, M. J. Bearpark, J. J. Heyd, E. N. Brothers, K. N. Kudin, 
 V. N. Staroverov, T. A. Keith, R. Kobayashi, J. Normand, 
 K. Raghavachari, A. P. Rendell, J. C. Burant, S. S. Iyengar, 
 J. Tomasi, M. Cossi, J. M. Millam, M. Klene, C. Adamo, R. Cammi, 
 J. W. Ochterski, R. L. Martin, K. Morokuma, O. Farkas, 
 J. B. Foresman, and D. J. Fox, Gaussian, Inc., Wallingford CT, 2016.
 
 ******************************************
 Gaussian 16:  ES64L-G16RevB.01 20-Dec-2017
                 5-Jan-2023 
 ******************************************
 %nprocshared=50
 Will use up to   50 processors via shared memory.
 %mem=10GB
 %chk=Thymine6311-freq-solv.chk
 ------------------------------------------------------------------
 #p freq cam-b3lyp/6-311+g(d,p) scrf=(solvent=water,pcm) symm=loose
 ------------------------------------------------------------------
 1/10=4,30=1,38=1/1,3;
 2/12=2,17=4,18=3,40=1/2;
 3/5=4,6=6,7=111,11=2,25=1,30=1,70=2201,71=2,72=1,74=-40,140=1/1,2,3;
 4//1;
 5/5=2,38=5,53=1,98=1/2;
 8/6=4,10=90,11=11/1;
 11/6=1,8=1,9=11,15=111,16=1/1,2,10;
 10/6=1/2;
 6/7=2,8=2,9=2,10=2,28=1/1;
 7/8=1,10=1,25=1/1,2,3,16;
 1/10=4,30=1/3;
 99//99;
 Leave Link    1 at Thu Jan  5 11:14:02 2023, MaxMem=  1342177280 cpu:               2.2 elap:               0.1
 (Enter /shared/gaussian/g16.b01/AVX2/g16/l101.exe)
 ----------------
 Thymine solvated
 ----------------
 Symbolic Z-matrix:
 Charge =  0 Multiplicity = 1
 N                    -0.23117  -0.03514  -0.18765 
 C                     1.09637  -0.362    -0.13809 
 N                     1.94349   0.69304   0.00033 
 C                     1.50713   1.98844   0.09405 
 C                     0.20304   2.31854   0.06272 
 C                    -0.75796   1.242    -0.07949 
 H                    -0.88878  -0.81343  -0.33326 
 O                     1.49365  -1.52663  -0.21212 
 H                     2.93788   0.46073   0.03201 
 H                     2.28981   2.72781   0.1993 
 O                    -1.97581   1.4124   -0.10838 
 C                    -0.29892   3.72357   0.17089 
 H                    -0.87752   4.00063  -0.71272 
 H                    -0.95505   3.8378    1.03618 
 H                     0.53193   4.42132   0.27266 
 O                    -2.15696  -2.18939  -0.54554 
 H                     0.53502  -3.05163   0.41374 
 O                     4.21976  -1.0042    0.05234 
 H                    -3.35011   0.32965   0.14121 
 H                    -2.95662  -1.6966   -0.24879 
 H                    -2.33746  -2.49334  -1.44134 
 O                    -0.11606  -3.71234   0.69918 
 H                    -0.9538   -3.34536   0.37493 
 H                     3.43773  -1.55482  -0.12499 
 H                     4.87117  -1.22696  -0.61977 
 O                    -4.00852  -0.39484   0.18979 
 H                    -4.41687  -0.34438   1.0594 
 
 ITRead=  0  0  0  0  0  0  0  0  0  0  0  0  0  0  0  0  0  0  0  0
 ITRead=  0  0  0  0  0  0  0
 MicOpt= -1 -1 -1 -1 -1 -1 -1 -1 -1 -1 -1 -1 -1 -1 -1 -1 -1 -1 -1 -1
 MicOpt= -1 -1 -1 -1 -1 -1 -1
 NAtoms=     27 NQM=       27 NQMF=       0 NMMI=      0 NMMIF=      0
                NMic=       0 NMicF=      0.
                    Isotopes and Nuclear Properties:
 (Nuclear quadrupole moments (NQMom) in fm**2, nuclear magnetic moments (NMagM)
  in nuclear magnetons)

  Atom         1           2           3           4           5           6           7           8           9          10
 IAtWgt=          14          12          14          12          12          12           1          16           1           1
 AtmWgt=  14.0030740  12.0000000  14.0030740  12.0000000  12.0000000  12.0000000   1.0078250  15.9949146   1.0078250   1.0078250
 NucSpn=           2           0           2           0           0           0           1           0           1           1
 AtZEff=  -0.0000000  -0.0000000  -0.0000000  -0.0000000  -0.0000000  -0.0000000  -0.0000000  -0.0000000  -0.0000000  -0.0000000
 NQMom=    2.0440000   0.0000000   2.0440000   0.0000000   0.0000000   0.0000000   0.0000000   0.0000000   0.0000000   0.0000000
 NMagM=    0.4037610   0.0000000   0.4037610   0.0000000   0.0000000   0.0000000   2.7928460   0.0000000   2.7928460   2.7928460
 AtZNuc=   7.0000000   6.0000000   7.0000000   6.0000000   6.0000000   6.0000000   1.0000000   8.0000000   1.0000000   1.0000000

  Atom        11          12          13          14          15          16          17          18          19          20
 IAtWgt=          16          12           1           1           1          16           1          16           1           1
 AtmWgt=  15.9949146  12.0000000   1.0078250   1.0078250   1.0078250  15.9949146   1.0078250  15.9949146   1.0078250   1.0078250
 NucSpn=           0           0           1           1           1           0           1           0           1           1
 AtZEff=  -0.0000000  -0.0000000  -0.0000000  -0.0000000  -0.0000000  -0.0000000  -0.0000000  -0.0000000  -0.0000000  -0.0000000
 NQMom=    0.0000000   0.0000000   0.0000000   0.0000000   0.0000000   0.0000000   0.0000000   0.0000000   0.0000000   0.0000000
 NMagM=    0.0000000   0.0000000   2.7928460   2.7928460   2.7928460   0.0000000   2.7928460   0.0000000   2.7928460   2.7928460
 AtZNuc=   8.0000000   6.0000000   1.0000000   1.0000000   1.0000000   8.0000000   1.0000000   8.0000000   1.0000000   1.0000000

  Atom        21          22          23          24          25          26          27
 IAtWgt=           1          16           1           1           1          16           1
 AtmWgt=   1.0078250  15.9949146   1.0078250   1.0078250   1.0078250  15.9949146   1.0078250
 NucSpn=           1           0           1           1           1           0           1
 AtZEff=  -0.0000000  -0.0000000  -0.0000000  -0.0000000  -0.0000000  -0.0000000  -0.0000000
 NQMom=    0.0000000   0.0000000   0.0000000   0.0000000   0.0000000   0.0000000   0.0000000
 NMagM=    2.7928460   0.0000000   2.7928460   2.7928460   2.7928460   0.0000000   2.7928460
 AtZNuc=   1.0000000   8.0000000   1.0000000   1.0000000   1.0000000   8.0000000   1.0000000
 Leave Link  101 at Thu Jan  5 11:14:02 2023, MaxMem=  1342177280 cpu:              11.0 elap:               0.2
 (Enter /shared/gaussian/g16.b01/AVX2/g16/l103.exe)

 GradGradGradGradGradGradGradGradGradGradGradGradGradGradGradGradGradGrad
 Berny optimization.
 Initialization pass.
 Trust Radius=3.00D-01 FncErr=1.00D-07 GrdErr=1.00D-07 EigMax=2.50D+02 EigMin=1.00D-04
 Number of steps in this run=      2 maximum allowed number of steps=      2.
 GradGradGradGradGradGradGradGradGradGradGradGradGradGradGradGradGradGrad

 Leave Link  103 at Thu Jan  5 11:14:02 2023, MaxMem=  1342177280 cpu:               0.9 elap:               0.0
 (Enter /shared/gaussian/g16.b01/AVX2/g16/l202.exe)
                          Input orientation:                          
 ---------------------------------------------------------------------
 Center     Atomic      Atomic             Coordinates (Angstroms)
 Number     Number       Type             X           Y           Z
 ---------------------------------------------------------------------
      1          7           0       -0.231165   -0.035141   -0.187654
      2          6           0        1.096368   -0.361997   -0.138091
      3          7           0        1.943485    0.693040    0.000329
      4          6           0        1.507125    1.988438    0.094046
      5          6           0        0.203041    2.318540    0.062719
      6          6           0       -0.757960    1.241995   -0.079486
      7          1           0       -0.888783   -0.813428   -0.333259
      8          8           0        1.493653   -1.526625   -0.212117
      9          1           0        2.937877    0.460729    0.032007
     10          1           0        2.289815    2.727805    0.199297
     11          8           0       -1.975808    1.412396   -0.108376
     12          6           0       -0.298916    3.723573    0.170889
     13          1           0       -0.877519    4.000626   -0.712721
     14          1           0       -0.955051    3.837803    1.036180
     15          1           0        0.531931    4.421320    0.272664
     16          8           0       -2.156964   -2.189391   -0.545540
     17          1           0        0.535017   -3.051632    0.413739
     18          8           0        4.219759   -1.004204    0.052340
     19          1           0       -3.350109    0.329653    0.141206
     20          1           0       -2.956624   -1.696598   -0.248786
     21          1           0       -2.337463   -2.493338   -1.441344
     22          8           0       -0.116056   -3.712336    0.699184
     23          1           0       -0.953796   -3.345363    0.374927
     24          1           0        3.437731   -1.554818   -0.124989
     25          1           0        4.871170   -1.226962   -0.619765
     26          8           0       -4.008523   -0.394841    0.189792
     27          1           0       -4.416871   -0.344379    1.059404
 ---------------------------------------------------------------------
                    Distance matrix (angstroms):
                    1          2          3          4          5
     1  N    0.000000
     2  C    1.368077   0.000000
     3  N    2.301019   1.360099   0.000000
     4  C    2.682514   2.397322   1.370127   0.000000
     5  C    2.406457   2.832602   2.382286   1.345579   0.000000
     6  C    1.385745   2.452500   2.757812   2.391213   1.450067
     7  H    1.029268   2.045166   3.225286   3.711256   3.340374
     8  O    2.280377   1.232750   2.274730   3.528397   4.065281
     9  H    3.215115   2.024097   1.021659   2.093990   3.306317
    10  H    3.760178   3.329418   2.073596   1.081825   2.130910
    11  O    2.268353   3.547903   3.986245   3.536046   2.365957
    12  C    3.776384   4.328299   3.773802   2.505670   1.495921
    13  H    4.120787   4.822749   4.405296   3.222778   2.144372
    14  H    4.125709   4.819290   4.400458   3.220261   2.144053
    15  H    4.544695   4.833987   3.995838   2.627132   2.138675
    16  O    2.911628   3.753605   5.041831   5.593646   5.124553
    17  H    3.169846   2.802457   4.022096   5.142908   5.391861
    18  O    4.561513   3.194412   2.839853   4.039310   5.212941
    19  H    3.157378   4.508608   5.307922   5.132886   4.072678
    20  H    3.192539   4.268508   5.457426   5.798455   5.118774
    21  H    3.471450   4.246443   5.527924   6.101196   5.645400
    22  O    3.784375   3.660024   4.912987   5.958165   6.072757
    23  H    3.434569   3.656068   4.984301   5.880855   5.789261
    24  H    3.971668   2.627732   2.702099   4.041024   5.049887
    25  H    5.257469   3.902474   3.555596   4.707985   5.901508
    26  O    3.813172   5.115515   6.053576   6.009289   5.011572
    27  H    4.378461   5.641818   6.530850   6.439540   5.424768
                    6          7          8          9         10
     6  C    0.000000
     7  H    2.075158   0.000000
     8  O    3.571079   2.489845   0.000000
     9  H    3.779156   4.049719   2.468796   0.000000
    10  H    3.402100   4.788260   4.347794   2.363811   0.000000
    11  O    1.230051   2.487265   4.548161   5.006963   4.474428
    12  C    2.536068   4.602878   5.560987   4.598072   2.773786
    13  H    2.832901   4.828999   6.035194   5.257636   3.533250
    14  H    2.832274   4.849093   6.027560   5.250512   3.530103
    15  H    3.449049   5.457853   6.044665   4.640342   2.442034
    16  O    3.734813   1.883247   3.725243   5.771837   6.671390
    17  H    4.511130   2.755861   1.906915   4.272720   6.043773
    18  O    5.462644   5.126625   2.788282   1.946706   4.204066
    19  H    2.756866   2.754973   5.199292   6.290300   6.128887
    20  H    3.673978   2.250131   4.453673   6.283156   6.877590
    21  H    4.278107   2.479642   4.137993   6.223061   7.166850
    22  O    5.056062   3.172808   2.863384   5.214029   6.893005
    23  H    4.613968   2.629914   3.105227   5.454269   6.887324
    24  H    5.042624   4.394515   1.946234   2.082530   4.445642
    25  H    6.170474   5.781882   3.415201   2.647778   4.793166
    26  O    3.649370   3.190858   5.631732   7.000669   7.029941
    27  H    4.147443   3.821900   6.160257   7.469676   7.426825
                   11         12         13         14         15
    11  O    0.000000
    12  C    2.869058   0.000000
    13  H    2.875831   1.091928   0.000000
    14  H    2.869591   1.091920   1.758174   0.000000
    15  H    3.935425   1.089732   1.770457   1.770470   0.000000
    16  O    3.632740   6.239291   6.323072   6.346141   7.183392
    17  H    5.148242   6.830653   7.280008   7.076161   7.474284
    18  O    6.652130   6.540975   7.184420   7.154833   6.563911
    19  H    1.767294   4.563919   4.507653   4.341013   5.641742
    20  H    3.263060   6.051264   6.082456   6.023871   7.061929
    21  H    4.142747   6.738320   6.695812   6.937761   7.680087
    22  O    5.511235   7.456895   7.878013   7.604083   8.170567
    23  H    4.890231   7.102137   7.426463   7.213538   7.908173
    24  H    6.173414   6.473908   7.059020   7.051610   6.657028
    25  H    7.355871   7.201578   7.770698   7.895496   7.178336
    26  O    2.736227   5.542822   5.471549   5.287281   6.619516
    27  H    3.226261   5.856214   5.877628   5.429124   6.915308
                   16         17         18         19         20
    16  O    0.000000
    17  H    2.985036   0.000000
    18  O    6.513427   4.230827   0.000000
    19  H    2.870679   5.157671   7.687000   0.000000
    20  H    0.985071   3.803500   7.215993   2.100623   0.000000
    21  H    0.963031   3.464703   6.888089   3.391046   1.562162
    22  O    2.834432   0.970518   5.152832   5.206545   3.609802
    23  H    1.905556   1.518008   5.687773   4.393482   2.668101
    24  H    5.646252   3.310050   0.972723   7.049600   6.397125
    25  H    7.094114   4.816614   0.962124   8.401878   7.850640
    26  O    2.681304   5.268059   8.251960   0.980184   1.730148
    27  H    3.329729   5.680431   8.720145   1.560573   2.381634
                   21         22         23         24         25
    21  H    0.000000
    22  O    3.316996   0.000000
    23  H    2.437072   0.970371   0.000000
    24  H    5.997206   4.238342   4.768802   0.000000
    25  H    7.364991   5.726180   6.277521   1.551464   0.000000
    26  O    3.139544   5.139704   4.251025   7.542634   8.955264
    27  H    3.898167   5.474477   4.633282   8.035093   9.479782
                   26         27
    26  O    0.000000
    27  H    0.962039   0.000000
 Stoichiometry    C5H14N2O6
 Framework group  C1[X(C5H14N2O6)]
 Deg. of freedom    75
 Full point group                 C1      NOp   1
 Largest Abelian subgroup         C1      NOp   1
 Largest concise Abelian subgroup C1      NOp   1
                         Standard orientation:                         
 ---------------------------------------------------------------------
 Center     Atomic      Atomic             Coordinates (Angstroms)
 Number     Number       Type             X           Y           Z
 ---------------------------------------------------------------------
      1          7           0       -0.231165   -0.035141   -0.187654
      2          6           0        1.096368   -0.361997   -0.138091
      3          7           0        1.943485    0.693041    0.000329
      4          6           0        1.507124    1.988439    0.094046
      5          6           0        0.203040    2.318540    0.062719
      6          6           0       -0.757961    1.241995   -0.079486
      7          1           0       -0.888783   -0.813428   -0.333259
      8          8           0        1.493654   -1.526624   -0.212117
      9          1           0        2.937877    0.460730    0.032007
     10          1           0        2.289814    2.727806    0.199297
     11          8           0       -1.975809    1.412395   -0.108376
     12          6           0       -0.298918    3.723573    0.170889
     13          1           0       -0.877521    4.000626   -0.712721
     14          1           0       -0.955053    3.837803    1.036180
     15          1           0        0.531929    4.421320    0.272664
     16          8           0       -2.156963   -2.189392   -0.545540
     17          1           0        0.535018   -3.051632    0.413739
     18          8           0        4.219759   -1.004202    0.052340
     19          1           0       -3.350109    0.329652    0.141206
     20          1           0       -2.956623   -1.696599   -0.248786
     21          1           0       -2.337462   -2.493339   -1.441344
     22          8           0       -0.116054   -3.712336    0.699184
     23          1           0       -0.953795   -3.345363    0.374927
     24          1           0        3.437732   -1.554817   -0.124989
     25          1           0        4.871171   -1.226960   -0.619765
     26          8           0       -4.008523   -0.394843    0.189792
     27          1           0       -4.416871   -0.344381    1.059404
 ---------------------------------------------------------------------
 Rotational constants (GHZ):           0.6284336           0.5383142           0.2971763
 Leave Link  202 at Thu Jan  5 11:14:02 2023, MaxMem=  1342177280 cpu:               0.2 elap:               0.0
 (Enter /shared/gaussian/g16.b01/AVX2/g16/l301.exe)
 Standard basis: 6-311+G(d,p) (5D, 7F)
 Ernie: Thresh=  0.10000D-02 Tol=  0.10000D-05 Strict=F.
 There are   383 symmetry adapted cartesian basis functions of A   symmetry.
 There are   370 symmetry adapted basis functions of A   symmetry.
   370 basis functions,   580 primitive gaussians,   383 cartesian basis functions
    53 alpha electrons       53 beta electrons
       nuclear repulsion energy       873.8248720125 Hartrees.
 IExCor=20419 DFT=T Ex+Corr=CAM-B3LYP ExCW=0 ScaHFX=  1.000000
 ScaDFX=  1.000000  1.000000  1.000000  0.810000 ScalE2=  1.000000  1.000000
 IRadAn=      5 IRanWt=     -1 IRanGd=            0 ICorTp=0 IEmpDi=  4
 HFx  wShort=  0.000000 wLong=  0.330000 cFull=  0.190000 cShort=  0.000000 cLong=  0.460000
 DFx  wShort=  0.000000 wLong=  0.330000 cFull=  0.190000 cShort=  0.000000 cLong=  0.460000
 NAtoms=   27 NActive=   27 NUniq=   27 SFac= 1.00D+00 NAtFMM=   60 NAOKFM=F Big=F
 Integral buffers will be    131072 words long.
 Raffenetti 2 integral format.
 Two-electron integral symmetry is turned on.
 Force inversion solution in PCM.
 ------------------------------------------------------------------------------
 Polarizable Continuum Model (PCM)
 =================================
 Model                : PCM.
 Atomic radii         : UFF (Universal Force Field).
 Polarization charges : Total charges.
 Charge compensation  : None.
 Solution method      : Matrix inversion.
 Cavity type          : Scaled VdW (van der Waals Surface) (Alpha=1.100).
 Cavity algorithm     : GePol (No added spheres)
                        Default sphere list used, NSphG=   27.
                        Lebedev-Laikov grids with approx.  5.0 points / Ang**2.
                        Smoothing algorithm: York/Karplus (Gamma=1.0000).
                        Polarization charges: spherical gaussians, with
                                              point-specific exponents (IZeta= 3).
                        Self-potential: point-specific (ISelfS= 7).
                        Self-field    : sphere-specific E.n sum rule (ISelfD= 2).
 1st derivatives      : Analytical E(r).r(x)/FMM algorithm (CHGder, D1EAlg=3).
                        Cavity 1st derivative terms included.
 2nd derivatives      : Analytical E(r).r(xy)/FMM algorithm (CHGder, D2EAlg=3).
                        Cavity 2nd derivative terms included.
 Solvent              : Water, Eps=  78.355300 Eps(inf)=   1.777849
 ------------------------------------------------------------------------------
 GePol: Number of generator spheres                  =      27
 GePol: Total number of spheres                      =      27
 GePol: Number of exposed spheres                    =      27 (100.00%)
 GePol: Number of points                             =    2281
 GePol: Average weight of points                     =       0.12
 GePol: Minimum weight of points                     =   0.27D-09
 GePol: Maximum weight of points                     =    0.20577
 GePol: Number of points with low weight             =     148
 GePol: Fraction of low-weight points (<1% of avg)   =       6.49%
 GePol: Cavity surface area                          =    280.953 Ang**2
 GePol: Cavity volume                                =    278.556 Ang**3
 Leave Link  301 at Thu Jan  5 11:14:02 2023, MaxMem=  1342177280 cpu:               3.2 elap:               0.1
 (Enter /shared/gaussian/g16.b01/AVX2/g16/l302.exe)
 NPDir=0 NMtPBC=     1 NCelOv=     1 NCel=       1 NClECP=     1 NCelD=      1
         NCelK=      1 NCelE2=     1 NClLst=     1 CellRange=     0.0.
 One-electron integrals computed using PRISM.
 One-electron integral symmetry used in STVInt
 NBasis=   370 RedAO= T EigKep=  5.61D-06  NBF=   370
 NBsUse=   370 1.00D-06 EigRej= -1.00D+00 NBFU=   370
 Precomputing XC quadrature grid using
 IXCGrd= 4 IRadAn=           5 IRanWt=          -1 IRanGd=           0 AccXCQ= 0.00D+00.
 Generated NRdTot=       0 NPtTot=           0 NUsed=           0 NTot=          32
 NSgBfM=   381   381   381   381   381 MxSgAt=    27 MxSgA2=    27.
 Leave Link  302 at Thu Jan  5 11:14:03 2023, MaxMem=  1342177280 cpu:              18.0 elap:               0.4
 (Enter /shared/gaussian/g16.b01/AVX2/g16/l303.exe)
 DipDrv:  MaxL=1.
 Leave Link  303 at Thu Jan  5 11:14:03 2023, MaxMem=  1342177280 cpu:               2.4 elap:               0.1
 (Enter /shared/gaussian/g16.b01/AVX2/g16/l401.exe)
 ExpMin= 4.38D-02 ExpMax= 8.59D+03 ExpMxC= 1.30D+03 IAcc=3 IRadAn=         5 AccDes= 0.00D+00
 Harris functional with IExCor=20419 and IRadAn=       5 diagonalized for initial guess.
 HarFok:  IExCor=20419 AccDes= 0.00D+00 IRadAn=         5 IDoV= 1 UseB2=F ITyADJ=14
 ICtDFT=  3500011 ScaDFX=  1.000000  1.000000  1.000000  1.000000
 FoFCou: FMM=F IPFlag=           0 FMFlag=      100000 FMFlg1=           0
         NFxFlg=           0 DoJE=T BraDBF=F KetDBF=T FulRan=T
         wScrn=  0.000000 ICntrl=       500 IOpCl=  0 I1Cent=   200000004 NGrid=           0
         NMat0=    1 NMatS0=      1 NMatT0=    0 NMatD0=    1 NMtDS0=    0 NMtDT0=    0
 Petite list used in FoFCou.
 Harris En= -733.390347692314    
 JPrj=0 DoOrth=F DoCkMO=F.
 Leave Link  401 at Thu Jan  5 11:14:04 2023, MaxMem=  1342177280 cpu:              26.6 elap:               0.6
 (Enter /shared/gaussian/g16.b01/AVX2/g16/l502.exe)
 Integral symmetry usage will be decided dynamically.
 Closed shell SCF:
 Using DIIS extrapolation, IDIIS=  1040.
 NGot=  1342177280 LenX=  1341860947 LenY=  1341713817
 Requested convergence on RMS density matrix=1.00D-08 within 128 cycles.
 Requested convergence on MAX density matrix=1.00D-06.
 Requested convergence on             energy=1.00D-06.
 No special actions if energy rises.
 Fock matrices will be formed incrementally for  20 cycles.

 Cycle   1  Pass 1  IDiag  1:
 FoFJK:  IHMeth= 1 ICntrl=       0 DoSepK=T KAlg= 0 I1Cent=           0 FoldK=F
 IRaf=         1 NMat=       1 IRICut=       1 DoRegI=T DoRafI=F ISym2E= 0 IDoP0=0 IntGTp=1.
 FoFCou: FMM=F IPFlag=           0 FMFlag=      100000 FMFlg1=           0
         NFxFlg=           0 DoJE=T BraDBF=F KetDBF=F FulRan=T
         wScrn=  0.000000 ICntrl=       500 IOpCl=  0 I1Cent=           0 NGrid=           0
         NMat0=    1 NMatS0=      1 NMatT0=    0 NMatD0=    1 NMtDS0=    0 NMtDT0=    0
 Symmetry not used in FoFCou.
 Inv3:  Mode=1 IEnd=    15608883.
 Iteration    1 A*A^-1 deviation from unit magnitude is 3.11D-15 for    700.
 Iteration    1 A*A^-1 deviation from orthogonality  is 3.40D-15 for   1030     35.
 Iteration    1 A^-1*A deviation from unit magnitude is 3.33D-15 for    700.
 Iteration    1 A^-1*A deviation from orthogonality  is 8.49D-14 for   1497   1357.
 E= -759.733593700849    
 DIIS: error= 5.40D-02 at cycle   1 NSaved=   1.
 NSaved= 1 IEnMin= 1 EnMin= -759.733593700849     IErMin= 1 ErrMin= 5.40D-02
 ErrMax= 5.40D-02  0.00D+00 EMaxC= 1.00D-01 BMatC= 1.14D+00 BMatP= 1.14D+00
 IDIUse=3 WtCom= 4.60D-01 WtEn= 5.40D-01
 Coeff-Com:  0.100D+01
 Coeff-En:   0.100D+01
 Coeff:      0.100D+01
 Gap=     0.309 Goal=   None    Shift=    0.000
 GapD=    0.309 DampG=1.000 DampE=0.500 DampFc=0.5000 IDamp=-1.
 Damping current iteration by 5.00D-01
 RMSDP=8.48D-03 MaxDP=1.43D+00              OVMax= 1.29D-01

 Cycle   2  Pass 1  IDiag  1:
 RMSU=  2.89D-03    CP:  8.66D-01
 E= -759.810862701863     Delta-E=       -0.077269001014 Rises=F Damp=T
 DIIS: error= 2.57D-02 at cycle   2 NSaved=   2.
 NSaved= 2 IEnMin= 2 EnMin= -759.810862701863     IErMin= 2 ErrMin= 2.57D-02
 ErrMax= 2.57D-02  0.00D+00 EMaxC= 1.00D-01 BMatC= 2.38D-01 BMatP= 1.14D+00
 IDIUse=3 WtCom= 7.43D-01 WtEn= 2.57D-01
 Coeff-Com: -0.682D+00 0.168D+01
 Coeff-En:   0.000D+00 0.100D+01
 Coeff:     -0.507D+00 0.151D+01
 Gap=     0.336 Goal=   None    Shift=    0.000
 RMSDP=4.19D-03 MaxDP=5.56D-01 DE=-7.73D-02 OVMax= 1.08D-01

 Cycle   3  Pass 1  IDiag  1:
 RMSU=  1.84D-03    CP:  7.26D-01  1.66D+00
 E= -759.859758680508     Delta-E=       -0.048895978645 Rises=F Damp=F
 DIIS: error= 1.06D-02 at cycle   3 NSaved=   3.
 NSaved= 3 IEnMin= 3 EnMin= -759.859758680508     IErMin= 3 ErrMin= 1.06D-02
 ErrMax= 1.06D-02  0.00D+00 EMaxC= 1.00D-01 BMatC= 3.67D-02 BMatP= 2.38D-01
 IDIUse=3 WtCom= 8.94D-01 WtEn= 1.06D-01
 Coeff-Com: -0.356D+00 0.767D+00 0.588D+00
 Coeff-En:   0.000D+00 0.000D+00 0.100D+01
 Coeff:     -0.318D+00 0.686D+00 0.632D+00
 Gap=     0.303 Goal=   None    Shift=    0.000
 RMSDP=1.02D-03 MaxDP=9.73D-02 DE=-4.89D-02 OVMax= 5.64D-02

 Cycle   4  Pass 1  IDiag  1:
 RMSU=  4.46D-04    CP:  7.21D-01  1.89D+00  6.61D-01
 E= -759.888183542195     Delta-E=       -0.028424861687 Rises=F Damp=F
 DIIS: error= 3.46D-03 at cycle   4 NSaved=   4.
 NSaved= 4 IEnMin= 4 EnMin= -759.888183542195     IErMin= 4 ErrMin= 3.46D-03
 ErrMax= 3.46D-03  0.00D+00 EMaxC= 1.00D-01 BMatC= 3.69D-03 BMatP= 3.67D-02
 IDIUse=3 WtCom= 9.65D-01 WtEn= 3.46D-02
 Coeff-Com: -0.170D+00 0.361D+00 0.364D+00 0.445D+00
 Coeff-En:   0.000D+00 0.000D+00 0.000D+00 0.100D+01
 Coeff:     -0.164D+00 0.348D+00 0.351D+00 0.464D+00
 Gap=     0.300 Goal=   None    Shift=    0.000
 RMSDP=3.37D-04 MaxDP=4.01D-02 DE=-2.84D-02 OVMax= 1.26D-02

 Cycle   5  Pass 1  IDiag  1:
 RMSU=  1.52D-04    CP:  7.13D-01  1.87D+00  7.56D-01  6.78D-01
 E= -759.890781028137     Delta-E=       -0.002597485942 Rises=F Damp=F
 DIIS: error= 5.77D-04 at cycle   5 NSaved=   5.
 NSaved= 5 IEnMin= 5 EnMin= -759.890781028137     IErMin= 5 ErrMin= 5.77D-04
 ErrMax= 5.77D-04  0.00D+00 EMaxC= 1.00D-01 BMatC= 7.77D-05 BMatP= 3.69D-03
 IDIUse=3 WtCom= 9.94D-01 WtEn= 5.77D-03
 Coeff-Com: -0.344D-01 0.723D-01 0.889D-01 0.185D+00 0.688D+00
 Coeff-En:   0.000D+00 0.000D+00 0.000D+00 0.000D+00 0.100D+01
 Coeff:     -0.343D-01 0.719D-01 0.884D-01 0.184D+00 0.690D+00
 Gap=     0.300 Goal=   None    Shift=    0.000
 RMSDP=8.41D-05 MaxDP=7.31D-03 DE=-2.60D-03 OVMax= 3.82D-03

 Cycle   6  Pass 1  IDiag  1:
 RMSU=  4.24D-05    CP:  7.12D-01  1.89D+00  7.66D-01  7.79D-01  9.47D-01
 E= -759.890843246447     Delta-E=       -0.000062218309 Rises=F Damp=F
 DIIS: error= 2.59D-04 at cycle   6 NSaved=   6.
 NSaved= 6 IEnMin= 6 EnMin= -759.890843246447     IErMin= 6 ErrMin= 2.59D-04
 ErrMax= 2.59D-04  0.00D+00 EMaxC= 1.00D-01 BMatC= 1.39D-05 BMatP= 7.77D-05
 IDIUse=3 WtCom= 9.97D-01 WtEn= 2.59D-03
 Coeff-Com:  0.130D-01-0.279D-01-0.204D-01 0.961D-03 0.331D+00 0.703D+00
 Coeff-En:   0.000D+00 0.000D+00 0.000D+00 0.000D+00 0.000D+00 0.100D+01
 Coeff:      0.129D-01-0.278D-01-0.204D-01 0.959D-03 0.331D+00 0.704D+00
 Gap=     0.300 Goal=   None    Shift=    0.000
 RMSDP=4.13D-05 MaxDP=4.75D-03 DE=-6.22D-05 OVMax= 2.03D-03

 Cycle   7  Pass 1  IDiag  1:
 RMSU=  1.54D-05    CP:  7.10D-01  1.89D+00  7.74D-01  7.90D-01  1.05D+00
                    CP:  9.48D-01
 E= -759.890858595920     Delta-E=       -0.000015349473 Rises=F Damp=F
 DIIS: error= 6.25D-05 at cycle   7 NSaved=   7.
 NSaved= 7 IEnMin= 7 EnMin= -759.890858595920     IErMin= 7 ErrMin= 6.25D-05
 ErrMax= 6.25D-05  0.00D+00 EMaxC= 1.00D-01 BMatC= 1.42D-06 BMatP= 1.39D-05
 IDIUse=1 WtCom= 1.00D+00 WtEn= 0.00D+00
 Coeff-Com:  0.898D-02-0.190D-01-0.182D-01-0.258D-01 0.505D-01 0.270D+00
 Coeff-Com:  0.733D+00
 Coeff:      0.898D-02-0.190D-01-0.182D-01-0.258D-01 0.505D-01 0.270D+00
 Coeff:      0.733D+00
 Gap=     0.300 Goal=   None    Shift=    0.000
 RMSDP=1.17D-05 MaxDP=1.30D-03 DE=-1.53D-05 OVMax= 5.88D-04

 Cycle   8  Pass 1  IDiag  1:
 RMSU=  5.29D-06    CP:  7.10D-01  1.89D+00  7.76D-01  7.94D-01  1.09D+00
                    CP:  1.02D+00  1.09D+00
 E= -759.890860481946     Delta-E=       -0.000001886026 Rises=F Damp=F
 DIIS: error= 3.66D-05 at cycle   8 NSaved=   8.
 NSaved= 8 IEnMin= 8 EnMin= -759.890860481946     IErMin= 8 ErrMin= 3.66D-05
 ErrMax= 3.66D-05  0.00D+00 EMaxC= 1.00D-01 BMatC= 2.47D-07 BMatP= 1.42D-06
 IDIUse=1 WtCom= 1.00D+00 WtEn= 0.00D+00
 Coeff-Com:  0.126D-02-0.261D-02-0.374D-02-0.130D-01-0.341D-01-0.977D-03
 Coeff-Com:  0.308D+00 0.745D+00
 Coeff:      0.126D-02-0.261D-02-0.374D-02-0.130D-01-0.341D-01-0.977D-03
 Coeff:      0.308D+00 0.745D+00
 Gap=     0.300 Goal=   None    Shift=    0.000
 RMSDP=5.52D-06 MaxDP=5.00D-04 DE=-1.89D-06 OVMax= 4.24D-04

 Cycle   9  Pass 1  IDiag  1:
 RMSU=  3.03D-06    CP:  7.10D-01  1.89D+00  7.76D-01  7.94D-01  1.11D+00
                    CP:  1.04D+00  1.25D+00  1.08D+00
 E= -759.890860832488     Delta-E=       -0.000000350542 Rises=F Damp=F
 DIIS: error= 1.50D-05 at cycle   9 NSaved=   9.
 NSaved= 9 IEnMin= 9 EnMin= -759.890860832488     IErMin= 9 ErrMin= 1.50D-05
 ErrMax= 1.50D-05  0.00D+00 EMaxC= 1.00D-01 BMatC= 3.56D-08 BMatP= 2.47D-07
 IDIUse=1 WtCom= 1.00D+00 WtEn= 0.00D+00
 Coeff-Com: -0.995D-03 0.213D-02 0.152D-02-0.162D-02-0.189D-01-0.389D-01
 Coeff-Com:  0.798D-02 0.305D+00 0.744D+00
 Coeff:     -0.995D-03 0.213D-02 0.152D-02-0.162D-02-0.189D-01-0.389D-01
 Coeff:      0.798D-02 0.305D+00 0.744D+00
 Gap=     0.300 Goal=   None    Shift=    0.000
 RMSDP=1.80D-06 MaxDP=1.76D-04 DE=-3.51D-07 OVMax= 1.80D-04

 Cycle  10  Pass 1  IDiag  1:
 RMSU=  8.45D-07    CP:  7.10D-01  1.89D+00  7.76D-01  7.93D-01  1.11D+00
                    CP:  1.05D+00  1.28D+00  1.21D+00  1.10D+00
 E= -759.890860881081     Delta-E=       -0.000000048593 Rises=F Damp=F
 DIIS: error= 4.68D-06 at cycle  10 NSaved=  10.
 NSaved=10 IEnMin=10 EnMin= -759.890860881081     IErMin=10 ErrMin= 4.68D-06
 ErrMax= 4.68D-06  0.00D+00 EMaxC= 1.00D-01 BMatC= 7.56D-09 BMatP= 3.56D-08
 IDIUse=1 WtCom= 1.00D+00 WtEn= 0.00D+00
 Coeff-Com: -0.592D-03 0.125D-02 0.117D-02 0.104D-02-0.268D-02-0.179D-01
 Coeff-Com: -0.548D-01 0.128D-01 0.366D+00 0.694D+00
 Coeff:     -0.592D-03 0.125D-02 0.117D-02 0.104D-02-0.268D-02-0.179D-01
 Coeff:     -0.548D-01 0.128D-01 0.366D+00 0.694D+00
 Gap=     0.300 Goal=   None    Shift=    0.000
 RMSDP=8.07D-07 MaxDP=5.90D-05 DE=-4.86D-08 OVMax= 5.27D-05

 Cycle  11  Pass 1  IDiag  1:
 RMSU=  3.63D-07    CP:  7.10D-01  1.89D+00  7.76D-01  7.92D-01  1.11D+00
                    CP:  1.05D+00  1.30D+00  1.24D+00  1.23D+00  9.79D-01
 E= -759.890860890225     Delta-E=       -0.000000009144 Rises=F Damp=F
 DIIS: error= 2.03D-06 at cycle  11 NSaved=  11.
 NSaved=11 IEnMin=11 EnMin= -759.890860890225     IErMin=11 ErrMin= 2.03D-06
 ErrMax= 2.03D-06  0.00D+00 EMaxC= 1.00D-01 BMatC= 3.73D-10 BMatP= 7.56D-09
 IDIUse=1 WtCom= 1.00D+00 WtEn= 0.00D+00
 Coeff-Com: -0.963D-04 0.203D-03 0.236D-03 0.446D-03 0.936D-03-0.252D-02
 Coeff-Com: -0.218D-01-0.184D-01 0.741D-01 0.214D+00 0.753D+00
 Coeff:     -0.963D-04 0.203D-03 0.236D-03 0.446D-03 0.936D-03-0.252D-02
 Coeff:     -0.218D-01-0.184D-01 0.741D-01 0.214D+00 0.753D+00
 Gap=     0.300 Goal=   None    Shift=    0.000
 RMSDP=2.13D-07 MaxDP=1.92D-05 DE=-9.14D-09 OVMax= 2.07D-05

 Cycle  12  Pass 1  IDiag  1:
 RMSU=  9.99D-08    CP:  7.10D-01  1.89D+00  7.76D-01  7.92D-01  1.11D+00
                    CP:  1.05D+00  1.31D+00  1.24D+00  1.25D+00  1.04D+00
                    CP:  1.10D+00
 E= -759.890860890780     Delta-E=       -0.000000000555 Rises=F Damp=F
 DIIS: error= 4.80D-07 at cycle  12 NSaved=  12.
 NSaved=12 IEnMin=12 EnMin= -759.890860890780     IErMin=12 ErrMin= 4.80D-07
 ErrMax= 4.80D-07  0.00D+00 EMaxC= 1.00D-01 BMatC= 1.06D-10 BMatP= 3.73D-10
 IDIUse=1 WtCom= 1.00D+00 WtEn= 0.00D+00
 Coeff-Com:  0.412D-04-0.884D-04-0.541D-04 0.753D-04 0.893D-03 0.183D-02
 Coeff-Com: -0.162D-02-0.943D-02-0.281D-01-0.396D-01 0.338D+00 0.738D+00
 Coeff:      0.412D-04-0.884D-04-0.541D-04 0.753D-04 0.893D-03 0.183D-02
 Coeff:     -0.162D-02-0.943D-02-0.281D-01-0.396D-01 0.338D+00 0.738D+00
 Gap=     0.300 Goal=   None    Shift=    0.000
 RMSDP=9.52D-08 MaxDP=7.05D-06 DE=-5.55D-10 OVMax= 6.47D-06

 Cycle  13  Pass 1  IDiag  1:
 RMSU=  3.91D-08    CP:  7.10D-01  1.89D+00  7.76D-01  7.92D-01  1.11D+00
                    CP:  1.05D+00  1.31D+00  1.25D+00  1.27D+00  1.06D+00
                    CP:  1.22D+00  1.12D+00
 E= -759.890860890923     Delta-E=       -0.000000000142 Rises=F Damp=F
 DIIS: error= 1.76D-07 at cycle  13 NSaved=  13.
 NSaved=13 IEnMin=13 EnMin= -759.890860890923     IErMin=13 ErrMin= 1.76D-07
 ErrMax= 1.76D-07  0.00D+00 EMaxC= 1.00D-01 BMatC= 4.85D-12 BMatP= 1.06D-10
 IDIUse=1 WtCom= 1.00D+00 WtEn= 0.00D+00
 Coeff-Com:  0.190D-04-0.403D-04-0.349D-04-0.250D-04 0.117D-03 0.719D-03
 Coeff-Com:  0.156D-02-0.292D-04-0.140D-01-0.322D-01 0.202D-01 0.154D+00
 Coeff-Com:  0.869D+00
 Coeff:      0.190D-04-0.403D-04-0.349D-04-0.250D-04 0.117D-03 0.719D-03
 Coeff:      0.156D-02-0.292D-04-0.140D-01-0.322D-01 0.202D-01 0.154D+00
 Coeff:      0.869D+00
 Gap=     0.300 Goal=   None    Shift=    0.000
 RMSDP=2.65D-08 MaxDP=2.01D-06 DE=-1.42D-10 OVMax= 2.34D-06

 Cycle  14  Pass 1  IDiag  1:
 RMSU=  1.44D-08    CP:  7.10D-01  1.89D+00  7.76D-01  7.92D-01  1.11D+00
                    CP:  1.05D+00  1.31D+00  1.25D+00  1.27D+00  1.07D+00
                    CP:  1.26D+00  1.17D+00  1.19D+00
 E= -759.890860890935     Delta-E=       -0.000000000012 Rises=F Damp=F
 DIIS: error= 8.23D-08 at cycle  14 NSaved=  14.
 NSaved=14 IEnMin=14 EnMin= -759.890860890935     IErMin=14 ErrMin= 8.23D-08
 ErrMax= 8.23D-08  0.00D+00 EMaxC= 1.00D-01 BMatC= 1.37D-12 BMatP= 4.85D-12
 IDIUse=1 WtCom= 1.00D+00 WtEn= 0.00D+00
 Coeff-Com:  0.244D-05-0.500D-05-0.753D-05-0.214D-04-0.781D-04 0.613D-04
 Coeff-Com:  0.825D-03 0.142D-02-0.168D-02-0.732D-02-0.371D-01-0.506D-01
 Coeff-Com:  0.375D+00 0.720D+00
 Coeff:      0.244D-05-0.500D-05-0.753D-05-0.214D-04-0.781D-04 0.613D-04
 Coeff:      0.825D-03 0.142D-02-0.168D-02-0.732D-02-0.371D-01-0.506D-01
 Coeff:      0.375D+00 0.720D+00
 Gap=     0.300 Goal=   None    Shift=    0.000
 RMSDP=9.04D-09 MaxDP=6.09D-07 DE=-1.23D-11 OVMax= 8.46D-07

 Error on total polarization charges =  0.01625
 SCF Done:  E(RCAM-B3LYP) =  -759.890860891     A.U. after   14 cycles
            NFock= 14  Conv=0.90D-08     -V/T= 2.0031
 KE= 7.575792185991D+02 PE=-3.532496917087D+03 EE= 1.141201965585D+03
 Leave Link  502 at Thu Jan  5 11:14:25 2023, MaxMem=  1342177280 cpu:            1026.5 elap:              21.4
 (Enter /shared/gaussian/g16.b01/AVX2/g16/l801.exe)
 DoSCS=F DFT=T ScalE2(SS,OS)=  1.000000  1.000000
 Range of M.O.s used for correlation:     1   370
 NBasis=   370 NAE=    53 NBE=    53 NFC=     0 NFV=     0
 NROrb=    370 NOA=    53 NOB=    53 NVA=   317 NVB=   317

 **** Warning!!: The largest alpha MO coefficient is  0.12208710D+03

 Leave Link  801 at Thu Jan  5 11:14:25 2023, MaxMem=  1342177280 cpu:               1.3 elap:               0.0
 (Enter /shared/gaussian/g16.b01/AVX2/g16/l1101.exe)
 Using compressed storage, NAtomX=    27.
 Will process     28 centers per pass.
 Leave Link 1101 at Thu Jan  5 11:14:26 2023, MaxMem=  1342177280 cpu:              22.7 elap:               0.5
 (Enter /shared/gaussian/g16.b01/AVX2/g16/l1102.exe)
 Symmetrizing basis deriv contribution to polar:
 IMax=3 JMax=2 DiffMx= 0.00D+00
 Leave Link 1102 at Thu Jan  5 11:14:26 2023, MaxMem=  1342177280 cpu:               2.0 elap:               0.1
 (Enter /shared/gaussian/g16.b01/AVX2/g16/l1110.exe)
 Forming Gx(P) for the SCF density, NAtomX=    27.
 Integral derivatives from FoFJK, PRISM(SPDF).
 Do as many integral derivatives as possible in FoFJK.
 G2DrvN: MDV=    1342174984.
 G2DrvN: will do    28 centers at a time, making    1 passes.
 Calling FoFCou, ICntrl=  3107 FMM=F I1Cent=   0 AccDes= 0.00D+00.
 FoFJK:  IHMeth= 1 ICntrl=    3107 DoSepK=T KAlg= 0 I1Cent=           0 FoldK=F
 IRaf=         1 NMat=       1 IRICut=       1 DoRegI=T DoRafI=F ISym2E= 0 IDoP0=0 IntGTp=1.
 FoFCou: FMM=F IPFlag=           0 FMFlag=      100000 FMFlg1=           0
         NFxFlg=           0 DoJE=F BraDBF=F KetDBF=F FulRan=T
         wScrn=  0.000000 ICntrl=      3507 IOpCl=  0 I1Cent=           0 NGrid=           0
         NMat0=    1 NMatS0=      1 NMatT0=    0 NMatD0=    1 NMtDS0=    0 NMtDT0=    0
 Symmetry not used in FoFCou.
 NEqPCM:  Using equilibrium solvation (IEInf=0, Eps=  78.3553, EpsInf=   1.7778)
 G2PCM: DoFxE=T DoFxN=T DoGrad=T DoDP/DQ/DG/TGxP=FFFF NFrqRd=   0 IEInf=0 SqF1=F DoCFld=F IF1Alg=4.
 GePol: Maximum number of non-zero 1st derivatives   =     266
 End of G2Drv F.D. properties file   721 does not exist.
 End of G2Drv F.D. properties file   722 does not exist.
 End of G2Drv F.D. properties file   788 does not exist.
 Leave Link 1110 at Thu Jan  5 11:14:47 2023, MaxMem=  1342177280 cpu:            1073.1 elap:              21.5
 (Enter /shared/gaussian/g16.b01/AVX2/g16/l1002.exe)
 Minotr:  Closed shell wavefunction.
          IDoAtm=111111111111111111111111111
 NEqPCM:  Using equilibrium solvation (IEInf=0, Eps=  78.3553, EpsInf=   1.7778)
          Direct CPHF calculation.
          Differentiating once with respect to electric field.
                with respect to dipole field.
          Differentiating once with respect to nuclear coordinates.
          Requested convergence is 1.0D-08 RMS, and 1.0D-07 maximum.
          Secondary convergence is 1.0D-12 RMS, and 1.0D-12 maximum.
          NewPWx=T KeepS1=F KeepF1=F KeepIn=T MapXYZ=F SortEE=F KeepMc=T.
         8369 words used for storage of precomputed grid.
 Two-electron integrals replicated using symmetry.
          MDV=    1342177280 using IRadAn=       1.
          Solving linear equations simultaneously, MaxMat=     350.
 FoF2E skips out because all densities are zero.
 CalDSu exits because no D1Ps are significant.
 FoFJK:  IHMeth= 1 ICntrl=       0 DoSepK=T KAlg= 0 I1Cent=           0 FoldK=F
 IRaf=         1 NMat=      81 IRICut=       1 DoRegI=T DoRafI=F ISym2E= 2 IDoP0=3 IntGTp=3.
          There are    84 degrees of freedom in the 1st order CPHF.  IDoFFX=6 NUNeed=     3.
     81 vectors produced by pass  0 Test12= 2.00D-14 1.19D-09 XBig12= 7.41D+01 5.27D+00.
 AX will form    81 AO Fock derivatives at one time.
     81 vectors produced by pass  1 Test12= 2.00D-14 1.19D-09 XBig12= 9.97D+00 4.21D-01.
     81 vectors produced by pass  2 Test12= 2.00D-14 1.19D-09 XBig12= 2.17D-01 5.63D-02.
     81 vectors produced by pass  3 Test12= 2.00D-14 1.19D-09 XBig12= 1.60D-03 3.52D-03.
     81 vectors produced by pass  4 Test12= 2.00D-14 1.19D-09 XBig12= 8.11D-06 2.28D-04.
     81 vectors produced by pass  5 Test12= 2.00D-14 1.19D-09 XBig12= 3.72D-08 1.49D-05.
     63 vectors produced by pass  6 Test12= 2.00D-14 1.19D-09 XBig12= 1.66D-10 9.93D-07.
     13 vectors produced by pass  7 Test12= 2.00D-14 1.19D-09 XBig12= 6.30D-13 9.29D-08.
      3 vectors produced by pass  8 Test12= 2.00D-14 1.19D-09 XBig12= 2.73D-15 7.61D-09.
 InvSVY:  IOpt=1 It=  1 EMax= 3.55D-15
 Solved reduced A of dimension   565 with    84 vectors.
 FullF1:  Do perturbations      1 to       3.
 Isotropic polarizability for W=    0.000000      144.75 Bohr**3.
 End of Minotr F.D. properties file   721 does not exist.
 End of Minotr F.D. properties file   722 does not exist.
 End of Minotr F.D. properties file   788 does not exist.
 Leave Link 1002 at Thu Jan  5 11:16:25 2023, MaxMem=  1342177280 cpu:            4888.5 elap:              97.9
 (Enter /shared/gaussian/g16.b01/AVX2/g16/l601.exe)
 Copying SCF densities to generalized density rwf, IOpCl= 0 IROHF=0.

 **********************************************************************

            Population analysis using the SCF Density.

 **********************************************************************

 Orbital symmetries:
       Occupied  (A) (A) (A) (A) (A) (A) (A) (A) (A) (A) (A) (A)
                 (A) (A) (A) (A) (A) (A) (A) (A) (A) (A) (A) (A)
                 (A) (A) (A) (A) (A) (A) (A) (A) (A) (A) (A) (A)
                 (A) (A) (A) (A) (A) (A) (A) (A) (A) (A) (A) (A)
                 (A) (A) (A) (A) (A)
       Virtual   (A) (A) (A) (A) (A) (A) (A) (A) (A) (A) (A) (A)
                 (A) (A) (A) (A) (A) (A) (A) (A) (A) (A) (A) (A)
                 (A) (A) (A) (A) (A) (A) (A) (A) (A) (A) (A) (A)
                 (A) (A) (A) (A) (A) (A) (A) (A) (A) (A) (A) (A)
                 (A) (A) (A) (A) (A) (A) (A) (A) (A) (A) (A) (A)
                 (A) (A) (A) (A) (A) (A) (A) (A) (A) (A) (A) (A)
                 (A) (A) (A) (A) (A) (A) (A) (A) (A) (A) (A) (A)
                 (A) (A) (A) (A) (A) (A) (A) (A) (A) (A) (A) (A)
                 (A) (A) (A) (A) (A) (A) (A) (A) (A) (A) (A) (A)
                 (A) (A) (A) (A) (A) (A) (A) (A) (A) (A) (A) (A)
                 (A) (A) (A) (A) (A) (A) (A) (A) (A) (A) (A) (A)
                 (A) (A) (A) (A) (A) (A) (A) (A) (A) (A) (A) (A)
                 (A) (A) (A) (A) (A) (A) (A) (A) (A) (A) (A) (A)
                 (A) (A) (A) (A) (A) (A) (A) (A) (A) (A) (A) (A)
                 (A) (A) (A) (A) (A) (A) (A) (A) (A) (A) (A) (A)
                 (A) (A) (A) (A) (A) (A) (A) (A) (A) (A) (A) (A)
                 (A) (A) (A) (A) (A) (A) (A) (A) (A) (A) (A) (A)
                 (A) (A) (A) (A) (A) (A) (A) (A) (A) (A) (A) (A)
                 (A) (A) (A) (A) (A) (A) (A) (A) (A) (A) (A) (A)
                 (A) (A) (A) (A) (A) (A) (A) (A) (A) (A) (A) (A)
                 (A) (A) (A) (A) (A) (A) (A) (A) (A) (A) (A) (A)
                 (A) (A) (A) (A) (A) (A) (A) (A) (A) (A) (A) (A)
                 (A) (A) (A) (A) (A) (A) (A) (A) (A) (A) (A) (A)
                 (A) (A) (A) (A) (A) (A) (A) (A) (A) (A) (A) (A)
                 (A) (A) (A) (A) (A) (A) (A) (A) (A) (A) (A) (A)
                 (A) (A) (A) (A) (A) (A) (A) (A) (A) (A) (A) (A)
                 (A) (A) (A) (A) (A)
 The electronic state is 1-A.
 Alpha  occ. eigenvalues --  -19.21016 -19.20613 -19.20544 -19.19873 -19.19593
 Alpha  occ. eigenvalues --  -19.17490 -14.45664 -14.45096 -10.41842 -10.38600
 Alpha  occ. eigenvalues --  -10.32422 -10.27438 -10.24779  -1.18544  -1.15296
 Alpha  occ. eigenvalues --   -1.11202  -1.10210  -1.09565  -1.07898  -1.07002
 Alpha  occ. eigenvalues --   -1.02532  -0.91064  -0.80273  -0.76920  -0.75276
 Alpha  occ. eigenvalues --   -0.65771  -0.65397  -0.62831  -0.61930  -0.61378
 Alpha  occ. eigenvalues --   -0.60076  -0.58872  -0.57565  -0.55876  -0.53779
 Alpha  occ. eigenvalues --   -0.51778  -0.51004  -0.50075  -0.48221  -0.47884
 Alpha  occ. eigenvalues --   -0.47196  -0.46385  -0.45833  -0.44019  -0.43403
 Alpha  occ. eigenvalues --   -0.41109  -0.40342  -0.39903  -0.38465  -0.37390
 Alpha  occ. eigenvalues --   -0.37136  -0.36308  -0.31008
 Alpha virt. eigenvalues --   -0.00976   0.02635   0.03431   0.03887   0.04305
 Alpha virt. eigenvalues --    0.06050   0.06465   0.07121   0.07329   0.08949
 Alpha virt. eigenvalues --    0.09487   0.09852   0.10411   0.11410   0.12796
 Alpha virt. eigenvalues --    0.13282   0.13997   0.14531   0.14952   0.15583
 Alpha virt. eigenvalues --    0.16389   0.17048   0.17363   0.17570   0.18463
 Alpha virt. eigenvalues --    0.18931   0.19360   0.19964   0.20084   0.20523
 Alpha virt. eigenvalues --    0.20932   0.21493   0.21884   0.22202   0.22747
 Alpha virt. eigenvalues --    0.23706   0.23884   0.24145   0.24374   0.25177
 Alpha virt. eigenvalues --    0.25614   0.25656   0.26482   0.26846   0.27086
 Alpha virt. eigenvalues --    0.27741   0.28776   0.29301   0.29471   0.29635
 Alpha virt. eigenvalues --    0.29907   0.30739   0.30821   0.31500   0.32097
 Alpha virt. eigenvalues --    0.32507   0.32787   0.33101   0.33870   0.34339
 Alpha virt. eigenvalues --    0.35202   0.35756   0.37633   0.38841   0.39540
 Alpha virt. eigenvalues --    0.41402   0.41797   0.41985   0.42627   0.44687
 Alpha virt. eigenvalues --    0.45965   0.46141   0.47555   0.47848   0.50156
 Alpha virt. eigenvalues --    0.51726   0.53463   0.55453   0.57153   0.58160
 Alpha virt. eigenvalues --    0.58511   0.59752   0.60478   0.61152   0.62000
 Alpha virt. eigenvalues --    0.62222   0.63540   0.63714   0.65365   0.66168
 Alpha virt. eigenvalues --    0.67323   0.67735   0.68363   0.68924   0.70760
 Alpha virt. eigenvalues --    0.72291   0.73783   0.74432   0.75757   0.76857
 Alpha virt. eigenvalues --    0.78420   0.79401   0.81027   0.85235   0.87167
 Alpha virt. eigenvalues --    0.89953   0.90231   0.91518   0.92809   0.93682
 Alpha virt. eigenvalues --    0.95648   0.97528   0.99494   1.00983   1.02747
 Alpha virt. eigenvalues --    1.03266   1.04694   1.05506   1.06324   1.07870
 Alpha virt. eigenvalues --    1.08291   1.09251   1.10521   1.11383   1.11582
 Alpha virt. eigenvalues --    1.12982   1.14118   1.15632   1.16997   1.17204
 Alpha virt. eigenvalues --    1.18336   1.19156   1.19964   1.21201   1.23270
 Alpha virt. eigenvalues --    1.23817   1.24554   1.25296   1.28057   1.29518
 Alpha virt. eigenvalues --    1.31390   1.33168   1.35660   1.36462   1.38080
 Alpha virt. eigenvalues --    1.39027   1.40458   1.41215   1.43058   1.43816
 Alpha virt. eigenvalues --    1.44833   1.46076   1.48124   1.50861   1.51000
 Alpha virt. eigenvalues --    1.52508   1.53410   1.56104   1.57934   1.59257
 Alpha virt. eigenvalues --    1.61088   1.61725   1.62235   1.63182   1.63541
 Alpha virt. eigenvalues --    1.64720   1.66259   1.67322   1.67832   1.70123
 Alpha virt. eigenvalues --    1.72545   1.74633   1.75422   1.78410   1.79864
 Alpha virt. eigenvalues --    1.80485   1.81716   1.84074   1.84623   1.86539
 Alpha virt. eigenvalues --    1.87781   1.89005   1.91473   1.92868   1.99640
 Alpha virt. eigenvalues --    2.00705   2.04685   2.05651   2.08706   2.09150
 Alpha virt. eigenvalues --    2.09921   2.10667   2.12629   2.15891   2.18561
 Alpha virt. eigenvalues --    2.21952   2.23756   2.27425   2.29365   2.32876
 Alpha virt. eigenvalues --    2.33323   2.36583   2.36714   2.37654   2.41989
 Alpha virt. eigenvalues --    2.42889   2.44029   2.48322   2.50250   2.53560
 Alpha virt. eigenvalues --    2.54686   2.55459   2.57581   2.59417   2.60020
 Alpha virt. eigenvalues --    2.61430   2.62798   2.64553   2.65905   2.69255
 Alpha virt. eigenvalues --    2.72034   2.74419   2.76708   2.77857   2.79048
 Alpha virt. eigenvalues --    2.82091   2.83157   2.83867   2.86967   2.87117
 Alpha virt. eigenvalues --    2.89695   2.93241   2.96006   2.98225   2.99160
 Alpha virt. eigenvalues --    3.00501   3.02302   3.04342   3.05828   3.07799
 Alpha virt. eigenvalues --    3.09608   3.15015   3.17384   3.17616   3.20134
 Alpha virt. eigenvalues --    3.20916   3.21628   3.23343   3.24318   3.24555
 Alpha virt. eigenvalues --    3.31100   3.37176   3.37611   3.38341   3.39337
 Alpha virt. eigenvalues --    3.39892   3.40555   3.44406   3.45832   3.49743
 Alpha virt. eigenvalues --    3.55149   3.65229   3.67249   3.70797   3.71770
 Alpha virt. eigenvalues --    3.76063   3.77444   3.78578   3.81311   3.81749
 Alpha virt. eigenvalues --    3.86763   3.91199   3.92678   3.94564   3.96286
 Alpha virt. eigenvalues --    3.97812   4.00064   4.00936   4.02565   4.13585
 Alpha virt. eigenvalues --    4.30586   4.38847   4.79217   4.94322   4.96540
 Alpha virt. eigenvalues --    5.04104   5.06302   5.06881   5.10458   5.12516
 Alpha virt. eigenvalues --    5.14156   5.30227   5.35463   5.43624   5.45858
 Alpha virt. eigenvalues --    5.46085   5.47799   5.55201   5.70810   5.71550
 Alpha virt. eigenvalues --    5.75314   5.77387   5.87184   5.93051  23.74655
 Alpha virt. eigenvalues --   23.90413  23.95045  24.02603  24.24384  35.65899
 Alpha virt. eigenvalues --   35.69864  49.92697  49.93199  49.95303  49.97019
 Alpha virt. eigenvalues --   50.04577  50.09720
          Condensed to atoms (all electrons):
               1          2          3          4          5          6
     1  N    7.203118   0.228908  -0.147823   0.415502  -0.079844  -0.222818
     2  C    0.228908   5.065515   0.386378  -0.400893   0.394114  -0.453480
     3  N   -0.147823   0.386378   6.805579  -0.119708   0.037995   0.217435
     4  C    0.415502  -0.400893  -0.119708   8.912192  -1.311392  -1.442282
     5  C   -0.079844   0.394114   0.037995  -1.311392   9.002619  -2.241299
     6  C   -0.222818  -0.453480   0.217435  -1.442282  -2.241299   9.942729
     7  H    0.309562  -0.015183   0.006853  -0.001317   0.012904  -0.021564
     8  O   -0.086562   0.370088  -0.104987   0.031988  -0.003323   0.017212
     9  H    0.002309  -0.029785   0.343826  -0.014694  -0.003687   0.009600
    10  H   -0.000218   0.021694  -0.037535   0.413278  -0.010333  -0.021241
    11  O   -0.089059   0.035315   0.000425  -0.029799  -0.114163   0.362045
    12  C   -0.043548  -0.103349   0.003705  -0.080845  -0.314120  -0.164541
    13  H   -0.000685   0.001232   0.000726  -0.037330   0.015686   0.034721
    14  H   -0.000333   0.001247   0.000594  -0.025087   0.034743   0.004149
    15  H   -0.000760   0.000898  -0.000522   0.041386  -0.137464  -0.037166
    16  O   -0.007599   0.025662   0.000830   0.001432  -0.008930  -0.021254
    17  H    0.009206  -0.011848  -0.000010  -0.001945   0.002296   0.003457
    18  O   -0.001562   0.004200   0.019601  -0.035590   0.019558   0.000459
    19  H    0.008241   0.002286  -0.000174  -0.010369   0.011800  -0.011027
    20  H   -0.001276  -0.001796  -0.000287   0.002145   0.022285  -0.017309
    21  H    0.005777  -0.003715  -0.000175  -0.000802   0.001672   0.001197
    22  O    0.010636  -0.007008  -0.002824  -0.005447   0.002121   0.007619
    23  H    0.002629  -0.006746  -0.000059  -0.000881   0.003054  -0.000267
    24  H    0.002112   0.005137  -0.003746   0.004484  -0.000291  -0.002433
    25  H    0.000061   0.005509  -0.000331  -0.001349  -0.000613  -0.000215
    26  O   -0.007133   0.005013   0.000747   0.004061  -0.051482   0.051183
    27  H   -0.000861  -0.000685  -0.000011  -0.001355   0.002067   0.003377
               7          8          9         10         11         12
     1  N    0.309562  -0.086562   0.002309  -0.000218  -0.089059  -0.043548
     2  C   -0.015183   0.370088  -0.029785   0.021694   0.035315  -0.103349
     3  N    0.006853  -0.104987   0.343826  -0.037535   0.000425   0.003705
     4  C   -0.001317   0.031988  -0.014694   0.413278  -0.029799  -0.080845
     5  C    0.012904  -0.003323  -0.003687  -0.010333  -0.114163  -0.314120
     6  C   -0.021564   0.017212   0.009600  -0.021241   0.362045  -0.164541
     7  H    0.275717   0.000771  -0.000112   0.000088   0.009288  -0.001687
     8  O    0.000771   8.255867  -0.003113  -0.000245   0.001924   0.006998
     9  H   -0.000112  -0.003113   0.298896  -0.004266  -0.000003  -0.002764
    10  H    0.000088  -0.000245  -0.004266   0.455839  -0.000384  -0.004589
    11  O    0.009288   0.001924  -0.000003  -0.000384   8.206434   0.044689
    12  C   -0.001687   0.006998  -0.002764  -0.004589   0.044689   6.025086
    13  H    0.000003  -0.000013   0.000009   0.000084  -0.000406   0.351452
    14  H   -0.000004  -0.000026   0.000004   0.000075  -0.001909   0.350948
    15  H    0.000013  -0.000016  -0.000022   0.001994   0.002617   0.504093
    16  O   -0.017563   0.006794   0.000063  -0.000003  -0.004322   0.001459
    17  H    0.002359   0.023513  -0.000298  -0.000001  -0.000006   0.000362
    18  O    0.000129  -0.026390  -0.024769   0.000841   0.000024   0.001684
    19  H    0.001104  -0.000052  -0.000000   0.000001   0.045655   0.004381
    20  H    0.002931   0.000174  -0.000003   0.000000   0.001241   0.000003
    21  H   -0.002019  -0.000802   0.000000  -0.000000   0.000028   0.000295
    22  O   -0.002500  -0.013979   0.000080  -0.000000   0.000221   0.000685
    23  H   -0.001618   0.003581   0.000000   0.000000  -0.000067   0.000130
    24  H    0.000005   0.029253   0.000879  -0.000008  -0.000006   0.000156
    25  H   -0.000003  -0.000006  -0.001102  -0.000028  -0.000001  -0.000064
    26  O    0.002923   0.000067   0.000003  -0.000001  -0.032877  -0.006484
    27  H   -0.000339  -0.000000   0.000000   0.000000  -0.000308   0.001261
              13         14         15         16         17         18
     1  N   -0.000685  -0.000333  -0.000760  -0.007599   0.009206  -0.001562
     2  C    0.001232   0.001247   0.000898   0.025662  -0.011848   0.004200
     3  N    0.000726   0.000594  -0.000522   0.000830  -0.000010   0.019601
     4  C   -0.037330  -0.025087   0.041386   0.001432  -0.001945  -0.035590
     5  C    0.015686   0.034743  -0.137464  -0.008930   0.002296   0.019558
     6  C    0.034721   0.004149  -0.037166  -0.021254   0.003457   0.000459
     7  H    0.000003  -0.000004   0.000013  -0.017563   0.002359   0.000129
     8  O   -0.000013  -0.000026  -0.000016   0.006794   0.023513  -0.026390
     9  H    0.000009   0.000004  -0.000022   0.000063  -0.000298  -0.024769
    10  H    0.000084   0.000075   0.001994  -0.000003  -0.000001   0.000841
    11  O   -0.000406  -0.001909   0.002617  -0.004322  -0.000006   0.000024
    12  C    0.351452   0.350948   0.504093   0.001459   0.000362   0.001684
    13  H    0.522218  -0.031808  -0.023503   0.000005   0.000000  -0.000000
    14  H   -0.031808   0.520995  -0.022073  -0.000003  -0.000000  -0.000001
    15  H   -0.023503  -0.022073   0.513822  -0.000002  -0.000000   0.000002
    16  O    0.000005  -0.000003  -0.000002   8.171043   0.003655  -0.000020
    17  H    0.000000  -0.000000  -0.000000   0.003655   0.362825   0.000059
    18  O   -0.000000  -0.000001   0.000002  -0.000020   0.000059   8.048228
    19  H    0.000078  -0.000134   0.000015   0.000055   0.000030  -0.000001
    20  H   -0.000003   0.000001   0.000000   0.292949  -0.000215  -0.000001
    21  H   -0.000000   0.000000   0.000000   0.302014  -0.000213  -0.000001
    22  O   -0.000000   0.000001  -0.000000  -0.008303   0.304360  -0.000011
    23  H    0.000000  -0.000000   0.000000  -0.012645  -0.024001  -0.000033
    24  H   -0.000000  -0.000000   0.000000   0.000048   0.000076   0.288031
    25  H    0.000000  -0.000000  -0.000000   0.000000  -0.000000   0.299544
    26  O    0.000036   0.000031  -0.000008  -0.016794   0.000047   0.000002
    27  H   -0.000002   0.000010   0.000000   0.001213  -0.000003  -0.000000
              19         20         21         22         23         24
     1  N    0.008241  -0.001276   0.005777   0.010636   0.002629   0.002112
     2  C    0.002286  -0.001796  -0.003715  -0.007008  -0.006746   0.005137
     3  N   -0.000174  -0.000287  -0.000175  -0.002824  -0.000059  -0.003746
     4  C   -0.010369   0.002145  -0.000802  -0.005447  -0.000881   0.004484
     5  C    0.011800   0.022285   0.001672   0.002121   0.003054  -0.000291
     6  C   -0.011027  -0.017309   0.001197   0.007619  -0.000267  -0.002433
     7  H    0.001104   0.002931  -0.002019  -0.002500  -0.001618   0.000005
     8  O   -0.000052   0.000174  -0.000802  -0.013979   0.003581   0.029253
     9  H   -0.000000  -0.000003   0.000000   0.000080   0.000000   0.000879
    10  H    0.000001   0.000000  -0.000000  -0.000000   0.000000  -0.000008
    11  O    0.045655   0.001241   0.000028   0.000221  -0.000067  -0.000006
    12  C    0.004381   0.000003   0.000295   0.000685   0.000130   0.000156
    13  H    0.000078  -0.000003  -0.000000  -0.000000   0.000000  -0.000000
    14  H   -0.000134   0.000001   0.000000   0.000001  -0.000000  -0.000000
    15  H    0.000015   0.000000   0.000000  -0.000000   0.000000   0.000000
    16  O    0.000055   0.292949   0.302014  -0.008303  -0.012645   0.000048
    17  H    0.000030  -0.000215  -0.000213   0.304360  -0.024001   0.000076
    18  O   -0.000001  -0.000001  -0.000001  -0.000011  -0.000033   0.288031
    19  H    0.326394   0.004057   0.000220   0.000078   0.000268   0.000000
    20  H    0.004057   0.340036  -0.010330  -0.000762   0.002750   0.000003
    21  H    0.000220  -0.010330   0.395615  -0.001282   0.003033  -0.000000
    22  O    0.000078  -0.000762  -0.001282   8.076620   0.319454  -0.000186
    23  H    0.000268   0.002750   0.003033   0.319454   0.364011   0.000065
    24  H    0.000000   0.000003  -0.000000  -0.000186   0.000065   0.386468
    25  H   -0.000000   0.000000  -0.000000  -0.000003   0.000001  -0.006706
    26  O    0.263717  -0.033429   0.003573   0.000275  -0.002605  -0.000001
    27  H   -0.003945   0.001542   0.000034   0.000065   0.000071   0.000000
              25         26         27
     1  N    0.000061  -0.007133  -0.000861
     2  C    0.005509   0.005013  -0.000685
     3  N   -0.000331   0.000747  -0.000011
     4  C   -0.001349   0.004061  -0.001355
     5  C   -0.000613  -0.051482   0.002067
     6  C   -0.000215   0.051183   0.003377
     7  H   -0.000003   0.002923  -0.000339
     8  O   -0.000006   0.000067  -0.000000
     9  H   -0.001102   0.000003   0.000000
    10  H   -0.000028  -0.000001   0.000000
    11  O   -0.000001  -0.032877  -0.000308
    12  C   -0.000064  -0.006484   0.001261
    13  H    0.000000   0.000036  -0.000002
    14  H   -0.000000   0.000031   0.000010
    15  H   -0.000000  -0.000008   0.000000
    16  O    0.000000  -0.016794   0.001213
    17  H   -0.000000   0.000047  -0.000003
    18  O    0.299544   0.000002  -0.000000
    19  H   -0.000000   0.263717  -0.003945
    20  H    0.000000  -0.033429   0.001542
    21  H   -0.000000   0.003573   0.000034
    22  O   -0.000003   0.000275   0.000065
    23  H    0.000001  -0.002605   0.000071
    24  H   -0.006706  -0.000001   0.000000
    25  H    0.400127  -0.000000  -0.000000
    26  O   -0.000000   8.189518   0.293522
    27  H   -0.000000   0.293522   0.395661
 Mulliken charges:
               1
     1  N   -0.507981
     2  C    0.481290
     3  N   -0.406503
     4  C   -0.305383
     5  C    0.714028
     6  C    0.001709
     7  H    0.439260
     8  O   -0.508717
     9  H    0.428947
    10  H    0.184959
    11  O   -0.436596
    12  C   -0.575396
    13  H    0.167501
    14  H    0.168580
    15  H    0.156694
    16  O   -0.709786
    17  H    0.326296
    18  O   -0.593985
    19  H    0.357321
    20  H    0.395293
    21  H    0.305880
    22  O   -0.679911
    23  H    0.349875
    24  H    0.296660
    25  H    0.305179
    26  O   -0.663902
    27  H    0.308686
 Sum of Mulliken charges =  -0.00000
 Mulliken charges with hydrogens summed into heavy atoms:
               1
     1  N   -0.068721
     2  C    0.481290
     3  N    0.022444
     4  C   -0.120423
     5  C    0.714028
     6  C    0.001709
     8  O   -0.508717
    11  O   -0.436596
    12  C   -0.082620
    16  O   -0.008613
    18  O    0.007854
    22  O   -0.003740
    26  O    0.002105
 APT charges:
               1
     1  N   -1.091069
     2  C    1.833474
     3  N   -1.085840
     4  C    0.694190
     5  C   -0.507460
     6  C    1.709832
     7  H    0.502138
     8  O   -1.427591
     9  H    0.503397
    10  H    0.100647
    11  O   -1.377263
    12  C    0.079093
    13  H   -0.002802
    14  H   -0.003284
    15  H    0.004549
    16  O   -0.970662
    17  H    0.510781
    18  O   -0.864092
    19  H    0.630464
    20  H    0.583623
    21  H    0.342143
    22  O   -0.890993
    23  H    0.467075
    24  H    0.506937
    25  H    0.346497
    26  O   -0.935796
    27  H    0.342010
 Sum of APT charges =  -0.00000
 APT charges with hydrogens summed into heavy atoms:
               1
     1  N   -0.588931
     2  C    1.833474
     3  N   -0.582443
     4  C    0.794837
     5  C   -0.507460
     6  C    1.709832
     8  O   -1.427591
    11  O   -1.377263
    12  C    0.077556
    16  O   -0.044896
    18  O   -0.010658
    22  O    0.086863
    26  O    0.036679
 Electronic spatial extent (au):  <R**2>=           3603.8540
 Charge=             -0.0000 electrons
 Dipole moment (field-independent basis, Debye):
    X=              2.5129    Y=              7.5757    Z=             -2.3615  Tot=              8.3236
 Quadrupole moment (field-independent basis, Debye-Ang):
   XX=            -69.9571   YY=            -95.7872   ZZ=            -77.4642
   XY=             10.9442   XZ=            -11.5466   YZ=             12.4380
 Traceless Quadrupole moment (field-independent basis, Debye-Ang):
   XX=             11.1124   YY=            -14.7177   ZZ=              3.6053
   XY=             10.9442   XZ=            -11.5466   YZ=             12.4380
 Octapole moment (field-independent basis, Debye-Ang**2):
  XXX=             38.0628  YYY=            115.8809  ZZZ=             -8.7485  XYY=             11.7236
  XXY=            -27.3617  XXZ=            -10.0328  XZZ=            -18.8671  YZZ=             -9.5722
  YYZ=            -35.3884  XYZ=              1.6529
 Hexadecapole moment (field-independent basis, Debye-Ang**3):
 XXXX=          -1949.8329 YYYY=          -2458.3427 ZZZZ=           -124.6954 XXXY=             -3.2568
 XXXZ=           -337.4431 YYYX=             64.1764 YYYZ=            145.6966 ZZZX=             -7.0010
 ZZZY=             29.0810 XXYY=           -633.1701 XXZZ=           -324.9562 YYZZ=           -384.1220
 XXYZ=             69.1005 YYXZ=             15.8716 ZZXY=             15.1574
 N-N= 8.738248720125D+02 E-N=-3.532496916088D+03  KE= 7.575792185991D+02
  Exact polarizability: 176.822 -16.685 161.209   0.298   4.491  96.225
 Approx polarizability: 154.522 -12.125 133.280   0.007   3.648  89.933
 No NMR shielding tensors so no spin-rotation constants.
 Leave Link  601 at Thu Jan  5 11:16:26 2023, MaxMem=  1342177280 cpu:               9.4 elap:               0.2
 (Enter /shared/gaussian/g16.b01/AVX2/g16/l701.exe)
 ... and contract with generalized density number  0.
 Compute integral second derivatives.
 D2PCM: PCM CHGder 2nd derivatives, FixD1E=F FixD2E=F DoIter=F DoCFld=F I1PDM=0
 GePol: Maximum number of non-zero 2nd derivatives   =     266
 Leave Link  701 at Thu Jan  5 11:16:29 2023, MaxMem=  1342177280 cpu:             160.6 elap:               3.3
 (Enter /shared/gaussian/g16.b01/AVX2/g16/l702.exe)
 L702 exits ... SP integral derivatives will be done elsewhere.
 Leave Link  702 at Thu Jan  5 11:16:29 2023, MaxMem=  1342177280 cpu:               1.2 elap:               0.0
 (Enter /shared/gaussian/g16.b01/AVX2/g16/l703.exe)
 Integral derivatives from FoFJK, PRISM(SPDF).
 Compute integral second derivatives, UseDBF=F ICtDFT=           0.
 Calling FoFJK, ICntrl=    100127 FMM=F ISym2X=0 I1Cent= 0 IOpClX= 0 NMat=1 NMatS=1 NMatT=0.
 FoFJK:  IHMeth= 1 ICntrl=  100127 DoSepK=T KAlg= 0 I1Cent=           0 FoldK=F
 IRaf=         1 NMat=       1 IRICut=       1 DoRegI=T DoRafI=F ISym2E= 0 IDoP0=0 IntGTp=1.
 FoFCou: FMM=F IPFlag=           0 FMFlag=      100000 FMFlg1=         800
         NFxFlg=           0 DoJE=F BraDBF=F KetDBF=F FulRan=T
         wScrn=  0.000000 ICntrl=    100527 IOpCl=  0 I1Cent=           0 NGrid=           0
         NMat0=    1 NMatS0=      1 NMatT0=    0 NMatD0=    1 NMtDS0=    0 NMtDT0=    0
 Symmetry not used in FoFCou.
 Leave Link  703 at Thu Jan  5 11:17:18 2023, MaxMem=  1342177280 cpu:            2444.2 elap:              49.0
 (Enter /shared/gaussian/g16.b01/AVX2/g16/l716.exe)
 Dipole        = 9.88643578D-01 2.98049598D+00-9.29081678D-01
 Polarizability= 1.76821649D+02-1.66847179D+01 1.61208531D+02
                 2.97998071D-01 4.49063568D+00 9.62248508D+01
 Full mass-weighted force constant matrix:
 Low frequencies ---   -7.9182   -0.0011   -0.0006   -0.0003    6.9419    7.0384
 Low frequencies ---   23.8139   40.7359   53.9687
 Diagonal vibrational polarizability:
      459.2365111     331.2974913     314.1753599
 Harmonic frequencies (cm**-1), IR intensities (KM/Mole), Raman scattering
 activities (A**4/AMU), depolarization ratios for plane and unpolarized
 incident light, reduced masses (AMU), force constants (mDyne/A),
 and normal coordinates:
                      1                      2                      3
                      A                      A                      A
 Frequencies --     23.6997                40.6518                53.9545
 Red. masses --      6.0287                 6.4424                 5.6016
 Frc consts  --      0.0020                 0.0063                 0.0096
 IR Inten    --      5.1556                 4.1475                 2.4399
  Atom  AN      X      Y      Z        X      Y      Z        X      Y      Z
     1   7     0.00  -0.01   0.01    -0.00  -0.00   0.21    -0.02   0.02  -0.03
     2   6     0.00  -0.01  -0.03    -0.00   0.00   0.18    -0.01   0.01  -0.11
     3   7     0.01  -0.01  -0.02     0.00   0.01   0.06    -0.00   0.01  -0.14
     4   6     0.01  -0.02   0.04     0.01   0.02  -0.05     0.01   0.00  -0.07
     5   6     0.01  -0.02   0.09     0.01   0.02  -0.04     0.01   0.01   0.00
     6   6     0.00  -0.01   0.06     0.00   0.01   0.09    -0.01   0.02   0.02
     7   1     0.00  -0.01   0.01    -0.01  -0.01   0.26    -0.03   0.01   0.04
     8   8    -0.00  -0.01  -0.07    -0.00  -0.00   0.26    -0.02   0.01  -0.16
     9   1     0.01  -0.01  -0.06     0.01   0.02  -0.01    -0.01  -0.00  -0.13
    10   1     0.01  -0.02   0.05     0.01   0.03  -0.16     0.01  -0.00  -0.08
    11   8     0.00  -0.01   0.07     0.00   0.01   0.10    -0.01   0.02   0.09
    12   6     0.01  -0.02   0.15     0.02   0.03  -0.17     0.02   0.01   0.08
    13   1    -0.01   0.02   0.18    -0.01  -0.06  -0.18    -0.03   0.04   0.12
    14   1     0.02  -0.06   0.17     0.04   0.13  -0.16     0.06  -0.02   0.12
    15   1     0.01  -0.03   0.17     0.02   0.04  -0.27     0.02   0.00   0.06
    16   8     0.04  -0.04   0.01     0.00   0.01   0.09    -0.02  -0.03   0.29
    17   1     0.00   0.08   0.20    -0.00  -0.11  -0.05     0.13  -0.04  -0.15
    18   8     0.01  -0.01  -0.24     0.04   0.04  -0.21    -0.05  -0.05   0.20
    19   1    -0.04  -0.01  -0.19    -0.05   0.03  -0.09    -0.07   0.07  -0.10
    20   1    -0.00  -0.02  -0.12    -0.03   0.02  -0.00    -0.03   0.01   0.19
    21   1     0.14  -0.13   0.02     0.12   0.09   0.03     0.01  -0.13   0.32
    22   8    -0.01   0.15   0.33     0.03  -0.20  -0.20     0.21  -0.09  -0.09
    23   1    -0.00   0.10   0.24     0.01  -0.15  -0.08     0.13  -0.08   0.14
    24   1    -0.00  -0.00  -0.20     0.01   0.02  -0.05    -0.04  -0.03   0.10
    25   1    -0.04   0.03  -0.31    -0.10   0.06  -0.35     0.07  -0.14   0.36
    26   8    -0.06  -0.01  -0.32    -0.07   0.05  -0.20    -0.09   0.09  -0.16
    27   1    -0.22  -0.00  -0.40    -0.24   0.08  -0.28    -0.30   0.20  -0.27
                      4                      5                      6
                      A                      A                      A
 Frequencies --     62.8630                69.5887               101.7442
 Red. masses --      5.4099                 6.2389                 5.8112
 Frc consts  --      0.0126                 0.0178                 0.0354
 IR Inten    --      8.9455                 6.7734                36.7654
  Atom  AN      X      Y      Z        X      Y      Z        X      Y      Z
     1   7     0.00  -0.00   0.10     0.08  -0.10  -0.01    -0.06   0.02  -0.02
     2   6     0.01   0.00  -0.03     0.09  -0.06  -0.02    -0.07  -0.04  -0.03
     3   7     0.02   0.02  -0.19     0.05  -0.03  -0.03    -0.03  -0.07  -0.09
     4   6     0.02   0.02  -0.21     0.01  -0.05  -0.02     0.04  -0.06  -0.05
     5   6     0.02   0.01  -0.05     0.00  -0.09   0.00     0.05   0.00   0.01
     6   6     0.00  -0.01   0.14     0.04  -0.12  -0.00     0.00   0.05  -0.01
     7   1    -0.00  -0.00   0.13     0.07  -0.10   0.00    -0.08   0.04  -0.00
     8   8     0.00   0.00  -0.00     0.14  -0.05  -0.01    -0.13  -0.06   0.02
     9   1     0.02   0.02  -0.22     0.06   0.00  -0.03    -0.03  -0.12  -0.10
    10   1     0.03   0.03  -0.35    -0.01  -0.02  -0.02     0.08  -0.10  -0.05
    11   8    -0.00  -0.02   0.33     0.04  -0.15   0.00     0.01   0.12  -0.02
    12   6     0.02   0.01  -0.07    -0.05  -0.11   0.02     0.14   0.03   0.11
    13   1    -0.12  -0.05  -0.00    -0.07  -0.12   0.04     0.11   0.12   0.15
    14   1     0.15   0.07   0.02    -0.04  -0.15   0.04     0.19   0.02   0.15
    15   1     0.03   0.03  -0.25    -0.07  -0.08   0.02     0.19  -0.03   0.11
    16   8     0.03   0.02  -0.20    -0.19   0.09   0.05    -0.01  -0.15   0.00
    17   1    -0.06   0.04   0.04    -0.08   0.05  -0.08    -0.11  -0.18   0.10
    18   8    -0.01  -0.00   0.15     0.18   0.27   0.04    -0.02   0.35   0.02
    19   1     0.00  -0.09   0.13    -0.11   0.05   0.02     0.14   0.03  -0.06
    20   1     0.00  -0.02  -0.20    -0.17   0.12   0.06     0.03  -0.08  -0.01
    21   1     0.12   0.14  -0.25    -0.23   0.07   0.07    -0.02  -0.14   0.00
    22   8    -0.10   0.07   0.03    -0.13   0.11  -0.05    -0.12  -0.19   0.06
    23   1    -0.06   0.04  -0.10    -0.12   0.15  -0.02    -0.10  -0.17   0.03
    24   1    -0.00  -0.02   0.15     0.31   0.10   0.03     0.19   0.05   0.04
    25   1     0.07  -0.15   0.28     0.26   0.36   0.08     0.13   0.45   0.13
    26   8    -0.00  -0.10  -0.03    -0.20   0.14   0.00     0.17   0.00  -0.03
    27   1    -0.04  -0.26  -0.04    -0.20   0.17   0.00     0.15   0.03  -0.03
                      7                      8                      9
                      A                      A                      A
 Frequencies --    118.2485               138.7096               149.1788
 Red. masses --      4.3213                 6.5808                 5.7724
 Frc consts  --      0.0356                 0.0746                 0.0757
 IR Inten    --      4.9959                17.0598                 8.9944
  Atom  AN      X      Y      Z        X      Y      Z        X      Y      Z
     1   7     0.03   0.01  -0.02    -0.03  -0.04  -0.02    -0.06  -0.05   0.10
     2   6     0.04   0.03   0.01    -0.04  -0.06  -0.03    -0.07  -0.07   0.07
     3   7     0.03   0.08  -0.21    -0.03  -0.07   0.00    -0.03  -0.09  -0.06
     4   6    -0.01   0.06  -0.14    -0.02  -0.07   0.01     0.01  -0.08  -0.07
     5   6    -0.03   0.02  -0.00    -0.02  -0.05  -0.01     0.01  -0.06  -0.00
     6   6     0.00  -0.00  -0.07    -0.02  -0.05  -0.01    -0.02  -0.02  -0.00
     7   1     0.04  -0.01   0.03    -0.05  -0.04  -0.03    -0.08  -0.04   0.08
     8   8     0.05   0.02   0.22    -0.06  -0.07  -0.06    -0.07  -0.08   0.15
     9   1     0.03   0.10  -0.21    -0.03  -0.08   0.00    -0.04  -0.12  -0.10
    10   1    -0.03   0.08  -0.17    -0.01  -0.08   0.02     0.03  -0.10  -0.12
    11   8     0.00  -0.03  -0.13    -0.02  -0.04  -0.01    -0.01   0.03  -0.09
    12   6    -0.09  -0.03   0.25    -0.00  -0.05  -0.02     0.06  -0.05   0.08
    13   1    -0.26   0.06   0.40     0.05  -0.03  -0.05    -0.16  -0.06   0.22
    14   1     0.07  -0.18   0.39    -0.05  -0.04  -0.06     0.29  -0.01   0.25
    15   1    -0.11   0.01   0.21     0.00  -0.06   0.03     0.10  -0.06  -0.15
    16   8     0.04   0.05   0.02     0.31   0.42  -0.01    -0.07  -0.00  -0.15
    17   1    -0.05  -0.07   0.12     0.06  -0.17   0.08     0.19   0.34  -0.08
    18   8     0.03  -0.09  -0.01    -0.09   0.10   0.00    -0.11   0.07  -0.01
    19   1    -0.01   0.01  -0.05    -0.10   0.04   0.05     0.01   0.08  -0.02
    20   1     0.03   0.03   0.02     0.17   0.22  -0.03    -0.06   0.01  -0.14
    21   1     0.06   0.09  -0.00     0.43   0.44  -0.04    -0.05   0.07  -0.18
    22   8    -0.08  -0.09   0.01     0.05  -0.16   0.09     0.34   0.21  -0.02
    23   1    -0.05  -0.03  -0.01     0.06  -0.10   0.14     0.25  -0.03  -0.03
    24   1    -0.07  -0.00   0.16    -0.02   0.02  -0.04    -0.04  -0.06   0.06
    25   1    -0.08  -0.29  -0.04    -0.01   0.15   0.06    -0.05   0.02   0.06
    26   8    -0.00   0.01   0.01    -0.09   0.03   0.03    -0.02   0.11   0.03
    27   1     0.04   0.03   0.03    -0.03  -0.06   0.07     0.11   0.08   0.09
                     10                     11                     12
                      A                      A                      A
 Frequencies --    159.8440               167.9592               175.7391
 Red. masses --      1.0998                 4.4495                 6.7106
 Frc consts  --      0.0166                 0.0740                 0.1221
 IR Inten    --      0.3393                10.7797                 4.8451
  Atom  AN      X      Y      Z        X      Y      Z        X      Y      Z
     1   7    -0.00  -0.00   0.02    -0.00  -0.07   0.12    -0.08   0.02  -0.05
     2   6    -0.00  -0.00   0.00     0.01  -0.02   0.01    -0.08  -0.00  -0.03
     3   7     0.00  -0.00  -0.05    -0.02   0.01  -0.02    -0.07  -0.00  -0.01
     4   6     0.01  -0.00  -0.02    -0.05   0.01  -0.01    -0.06   0.01  -0.00
     5   6     0.01   0.00   0.01    -0.06  -0.05   0.03    -0.06   0.01  -0.00
     6   6    -0.00   0.00   0.00    -0.01  -0.08   0.05    -0.07   0.02   0.01
     7   1    -0.01   0.00   0.03     0.02  -0.08   0.10    -0.08   0.02  -0.07
     8   8    -0.00  -0.00   0.03     0.04  -0.00  -0.07    -0.06   0.01  -0.02
     9   1     0.00  -0.00  -0.05    -0.01   0.04  -0.07    -0.08   0.00   0.03
    10   1     0.01  -0.00  -0.03    -0.06   0.03  -0.05    -0.06  -0.00   0.00
    11   8     0.00   0.00  -0.00    -0.00  -0.05   0.02    -0.06   0.06   0.08
    12   6     0.02   0.01   0.01    -0.18  -0.09  -0.03    -0.08   0.01  -0.01
    13   1     0.50   0.22  -0.24    -0.06  -0.13  -0.13    -0.03   0.01  -0.05
    14   1    -0.42  -0.13  -0.31    -0.34  -0.17  -0.15    -0.14  -0.02  -0.05
    15   1     0.00  -0.06   0.58    -0.26  -0.02   0.12    -0.10   0.02   0.04
    16   8    -0.01  -0.01  -0.01     0.02   0.01   0.02    -0.06  -0.01  -0.16
    17   1     0.01   0.03   0.00    -0.01  -0.02  -0.04     0.09  -0.13   0.13
    18   8    -0.00   0.01  -0.00    -0.09   0.00  -0.01     0.41  -0.12   0.04
    19   1    -0.03  -0.01   0.01     0.39   0.16  -0.09     0.07   0.15   0.02
    20   1    -0.01  -0.01  -0.01     0.07   0.13   0.00    -0.03   0.02  -0.16
    21   1     0.00   0.02  -0.02     0.01   0.04   0.02    -0.07   0.02  -0.17
    22   8     0.02   0.01  -0.00    -0.04   0.02  -0.02     0.14  -0.18   0.14
    23   1     0.01  -0.01  -0.01    -0.03   0.05  -0.02     0.12  -0.27   0.08
    24   1    -0.00  -0.01   0.02    -0.10   0.02  -0.05     0.40  -0.09   0.06
    25   1     0.00  -0.03   0.02    -0.01  -0.11   0.12     0.22   0.10  -0.22
    26   8    -0.03  -0.01   0.01     0.31   0.22  -0.05     0.00   0.21   0.03
    27   1    -0.02  -0.02   0.01     0.31   0.29  -0.06     0.13   0.16   0.09
                     13                     14                     15
                      A                      A                      A
 Frequencies --    183.5732               192.1327               224.4472
 Red. masses --      6.4941                 4.9988                 1.1866
 Frc consts  --      0.1289                 0.1087                 0.0352
 IR Inten    --      3.3076                32.7639               172.5006
  Atom  AN      X      Y      Z        X      Y      Z        X      Y      Z
     1   7    -0.11  -0.02   0.20     0.02  -0.01   0.35    -0.01   0.01  -0.06
     2   6    -0.10  -0.04   0.03     0.04   0.03   0.03    -0.01  -0.00   0.01
     3   7    -0.07  -0.06  -0.05     0.04   0.05  -0.04    -0.01  -0.00   0.03
     4   6    -0.04  -0.06  -0.03     0.02   0.04   0.01    -0.01  -0.00   0.02
     5   6    -0.03  -0.02   0.02     0.01   0.03   0.07    -0.01   0.00  -0.00
     6   6    -0.07   0.02   0.02     0.01   0.02   0.06    -0.01   0.00  -0.01
     7   1    -0.13  -0.00   0.18     0.03   0.00   0.27    -0.01   0.01  -0.05
     8   8    -0.10  -0.03  -0.06     0.04   0.04  -0.20    -0.01  -0.00   0.04
     9   1    -0.07  -0.07  -0.11     0.05   0.08  -0.19    -0.01   0.01  -0.01
    10   1    -0.02  -0.07  -0.07     0.01   0.05  -0.06    -0.01  -0.00   0.03
    11   8    -0.06   0.07  -0.13     0.02   0.01  -0.21    -0.01   0.00   0.02
[...]
 0010285,-0.00895656,0.00009559,-0.15142656,0.11850734,-0.00055085,-0.0
 0129561,-0.00036245,0.00042895,0.00014486,0.00000527,-0.00020735,-0.00
 028641,-0.00004706,-0.00009931,0.00019456,0.00000999,0.00029172,-0.000
 09563,0.00009475,-0.00127739,0.00082734,0.00005997,0.00168084,0.002371
 44,0.00122597,-0.00032296,-0.00025222,0.00006191,0.00001985,-0.0000422
 1,0.00000793,0.00000650,-0.00001267,-0.00000774,0.00150483,0.00020297,
 -0.00040624,-0.00002495,-0.00002281,-0.00000528,-0.00000242,-0.0000097
 1,0.00000318,0.00000112,-0.00000847,-0.00000601,0.00000462,-0.00001440
 ,-0.00000160,0.05635408,-0.05256416,-0.07639619,0.00061668,0.00014999,
 0.00000514,-0.00006495,0.00000243,-0.00000295,-0.00183825,-0.00216750,
 0.00165256,-0.08808343,0.06721428,0.09241742,-0.00105980,-0.00133530,0
 .00041522,0.00043028,-0.00037210,-0.00002787,-0.00017311,-0.00002131,-
 0.00005614,-0.00000254,0.00003183,0.00000719,0.00005425,-0.00007477,-0
 .00004527,-0.00049600,0.00031290,0.00003330,0.00127927,0.00154865,-0.0
 0218717,-0.00014512,0.00017553,0.00008601,0.00001703,-0.00003438,-0.00
 001191,-0.00000194,-0.00000442,0.00000327,0.00031635,-0.00003212,-0.00
 000085,-0.00002690,-0.00000750,-0.00000203,0.00000312,-0.00000567,0.00
 000064,0.00000393,-0.00000228,-0.00000054,0.00000142,-0.00001305,-0.00
 000103,-0.05895720,-0.02544330,-0.11350327,0.00012980,-0.00008978,-0.0
 0009821,-0.00003203,0.00000833,0.00000614,-0.00010929,-0.00028052,0.00
 005117,0.00946558,0.00959509,0.03424680,0.05122156,-0.00078236,-0.0004
 6382,0.00035557,-0.00006256,-0.00022052,0.00003124,-0.00002898,0.00005
 222,-0.00003180,0.00000413,0.00000637,0.00000414,0.00001816,-0.0000062
 6,-0.00002543,-0.00004869,-0.00003361,-0.00004799,0.00035489,-0.000289
 82,-0.00190178,0.00005323,0.00007197,-0.00000186,-0.00000812,-0.000006
 09,-0.00000957,-0.00000051,-0.00000036,0.00000523,0.00006258,-0.000006
 75,0.00008932,0.00000094,-0.00000147,-0.00000375,0.00000064,-0.0000018
 5,0.00000010,0.00000006,0.00000168,0.00000075,0.00000058,-0.00000017,0
 .00000003,-0.00830021,-0.06143609,-0.14258921,-0.00009254,0.00000852,-
 0.00000506,0.00001039,-0.00000025,0.00000256,-0.00005295,0.00010729,-0
 .00014246,-0.00711721,-0.00590295,-0.02036639,0.01478008,0.06776113,0.
 00134452,0.00127885,0.00014060,-0.00058340,0.00028923,-0.00000096,0.00
 023996,0.00005519,0.00001595,-0.00001061,-0.00000503,0.00000160,0.0000
 2859,0.00008786,0.00001861,0.00023783,-0.00046472,-0.00002921,-0.00219
 753,-0.00204373,-0.00017982,0.00021764,-0.00013141,-0.00002800,-0.0000
 3308,0.00004227,0.00000775,0.00000404,0.00000463,0.00000132,-0.0000959
 9,0.00021849,0.00000290,0.00003186,0.00000163,0.00000058,-0.00000541,0
 .00000635,-0.00000061,-0.00000532,0.00000369,0.00000029,0.00000069,0.0
 0001573,0.00000179,-0.07379015,-0.16048271,-0.45491776,-0.00012410,-0.
 00002367,0.00000792,0.00005115,-0.00000913,-0.00000317,0.00005557,-0.0
 0026115,0.00002834,-0.00623981,-0.00272562,-0.01291602,0.08230821,0.16
 310315,0.46857791,0.00227341,-0.00072878,0.00012816,-0.00452210,0.0063
 0843,0.00111853,-0.00033826,-0.00277620,-0.00047552,-0.00048366,0.0005
 9366,-0.00011537,0.00023559,-0.00003146,0.00003647,-0.00069120,0.00048
 131,0.00001198,-0.00129554,-0.00158355,-0.00005155,0.00023779,-0.01111
 874,0.00260456,0.00029036,0.00002175,0.00007369,0.00003008,-0.00010771
 ,-0.00001513,0.00077884,-0.00004256,-0.00000419,0.00007943,0.00001499,
 0.00001437,0.00001183,-0.00006061,0.00000283,0.00000998,-0.00005754,-0
 .00001405,-0.00000717,-0.00001827,-0.00000323,-0.00740255,0.00696442,-
 0.00418260,-0.23746709,-0.22157493,0.09487305,-0.00047559,-0.00001287,
 0.00002104,-0.00015851,-0.00035260,0.00003688,0.00173290,-0.00082130,-
 0.00275877,-0.00075059,0.00112149,0.00054056,0.61523381,0.00181273,-0.
 00160813,0.00026906,-0.00362017,0.00801994,0.00083652,-0.00074012,-0.0
 0322448,-0.00060516,-0.00055900,0.00068591,-0.00011751,0.00027485,-0.0
 0015387,-0.00004599,-0.00131697,0.00121244,0.00008399,-0.00017384,0.00
 120714,-0.00052453,-0.00446897,-0.01171872,0.00373609,0.00039261,-0.00
 002723,0.00007074,0.00002641,-0.00013325,-0.00001216,0.00104630,-0.000
 36271,0.00000258,0.00002053,0.00001835,0.00002991,0.00002507,-0.000074
 19,0.00000405,0.00002010,-0.00006905,-0.00001636,-0.00001092,-0.000048
 83,-0.00000475,0.00597082,-0.00158667,0.00258727,-0.17914213,-0.243389
 52,0.10924269,-0.00070919,0.00003396,-0.00000216,-0.00019364,0.0000248
 8,0.00000456,-0.00058282,0.00062831,0.00167611,0.00089172,-0.00094026,
 0.00000786,0.05840080,0.35536044,-0.00056535,0.00065851,0.00006121,0.0
 0179762,-0.00237644,-0.00017296,0.00011699,0.00124263,0.00004460,0.000
 23050,-0.00018235,-0.00001877,-0.00008139,0.00006412,0.00004067,0.0004
 0765,-0.00042277,-0.00005363,-0.00027194,-0.00065989,-0.00016027,0.001
 62846,0.00507531,0.00087484,-0.00014251,-0.00000462,-0.00001751,-0.000
 01215,0.00005564,0.00000142,-0.00031670,0.00016608,0.00002184,-0.00000
 151,-0.00000526,-0.00001132,-0.00000783,0.00002233,-0.00000054,-0.0000
 1050,0.00002509,0.00000462,0.00000336,0.00001738,0.00000134,-0.0058132
 1,0.00416530,0.00102445,0.07041108,0.10312239,-0.05717691,0.00026872,0
 .00000582,0.00004316,0.00005197,-0.00010298,-0.00001270,0.00071406,-0.
 00033275,-0.00191840,0.00017709,-0.00005558,0.00048932,0.05057221,-0.1
 8757744,0.12484103,-0.00132343,-0.00021104,-0.00022677,0.00100351,-0.0
 0272097,-0.00007641,0.00003849,0.00086328,0.00014414,0.00017126,-0.000
 20545,0.00000592,-0.00013051,-0.00001958,0.00001195,0.00033386,-0.0000
 9432,-0.00000560,0.00182288,0.00112335,0.00043568,0.00106726,0.0024589
 1,-0.00043463,-0.00007150,-0.00002565,-0.00001767,-0.00000958,0.000032
 48,-0.00000032,-0.00037742,-0.00010652,-0.00000859,-0.00002975,-0.0000
 0364,-0.00000565,-0.00000171,0.00001631,-0.00000174,-0.00000104,0.0000
 1639,0.00000445,0.00000124,0.00000135,0.00000007,-0.00099151,-0.002925
 70,0.00107565,-0.03145019,0.01292845,-0.01183579,0.00016277,0.00001474
 ,-0.00000318,0.00008000,0.00038747,-0.00001289,-0.00289375,0.00157158,
 0.00248515,0.00059688,-0.00100840,-0.00133839,-0.36725235,0.12122758,-
 0.11831339,0.39847904,0.00060622,0.00079294,-0.00003891,-0.00144664,0.
 00026724,0.00023459,0.00028487,-0.00009129,-0.00003101,-0.00003789,0.0
 0003147,-0.00003015,0.00001262,0.00012718,0.00006600,0.00056110,-0.000
 61216,-0.00005116,-0.00110755,-0.00312289,0.00060765,0.00082966,-0.001
 39445,0.00044974,-0.00003780,0.00005287,0.00000952,0.00000818,0.000001
 69,0.00000032,-0.00018788,0.00023089,-0.00001452,0.00006341,0.00000542
 ,-0.00000067,-0.00000724,0.00000292,-0.00000157,-0.00000712,0.00000385
 ,0.00000106,0.00000068,0.00002461,0.00000119,-0.00110146,-0.00136790,-
 0.00020629,-0.02985611,0.01120574,-0.00946371,0.00008069,-0.00000750,0
 .00000283,0.00001645,-0.00025204,0.00004826,0.00155331,-0.00182469,-0.
 00277403,-0.00152243,0.00189567,0.00022875,0.16441119,-0.10316287,0.07
 646244,-0.13215370,0.09607456,-0.00058879,-0.00040447,-0.00017776,0.00
 067490,-0.00059084,-0.00004966,-0.00012317,0.00018788,0.00006012,0.000
 04712,-0.00005221,0.00001041,-0.00003606,-0.00005830,-0.00000251,-0.00
 011533,0.00019496,0.00002064,0.00098141,0.00156639,0.00038665,-0.00020
 976,0.00099626,-0.00041087,0.00000041,-0.00002749,-0.00000390,-0.00000
 523,0.00000440,0.00000035,-0.00004560,-0.00014202,-0.00001915,-0.00003
 169,-0.00000235,-0.00000047,0.00000266,0.00000249,-0.00000072,0.000004
 63,0.00000041,0.00000065,-0.00000001,-0.00000968,-0.00000093,0.0029509
 6,-0.00371171,-0.00564238,0.01242905,-0.00365720,0.00533768,0.00000079
 ,0.00000809,-0.00000289,0.00002161,0.00028084,-0.00000079,-0.00160012,
 0.00067272,0.00348217,-0.00110175,0.00120297,-0.00183615,-0.14281488,0
 .07061338,-0.06815710,0.12864537,-0.06594839,0.06756658,0.00560090,-0.
 00578444,-0.00026289,-0.00689860,0.02202413,0.00132651,-0.00341877,-0.
 00535800,-0.00042650,-0.00107979,0.00137033,0.00008957,0.00046825,-0.0
 0029268,-0.00003472,-0.00209101,0.00267536,0.00019500,-0.00091244,-0.0
 0063060,-0.00017925,0.00986356,-0.01201051,-0.00041275,0.00379559,0.00
 069934,0.00014143,0.00005479,-0.00026174,-0.00002093,0.00235744,-0.000
 79909,-0.00002108,0.00009085,0.00004039,0.00000672,0.00004135,-0.00015
 651,0.00000753,0.00004512,-0.00015289,-0.00003315,-0.00001933,-0.00009
 044,-0.00000965,0.00042983,0.00032688,0.00009011,-0.00090661,-0.001641
 72,0.00062312,-0.31011946,-0.19258425,-0.04192388,-0.00043831,-0.00022
 560,0.00006789,-0.00012736,0.00000479,0.00007969,0.00003256,-0.0000142
 2,-0.00005636,0.00069077,0.00089989,-0.00033165,-0.00020908,-0.0000646
 9,-0.00002201,0.32369127,-0.00054197,-0.00048639,-0.00011266,0.0058596
 3,0.00078962,0.00026592,-0.00035554,0.00159884,0.00033183,0.00000695,-
 0.00179811,-0.00017064,-0.00080323,0.00011167,-0.00002791,0.00108299,0
 .00028534,0.00004823,0.00005902,0.00014138,0.00003608,-0.00430419,-0.0
 0604064,-0.00010272,0.00139389,-0.00702622,-0.00107522,0.00001285,0.00
 005339,0.00000624,-0.00078467,-0.00001262,-0.00002498,-0.00010213,-0.0
 0005978,-0.00000923,-0.00002565,0.00006572,-0.00000279,-0.00002684,0.0
 0006367,0.00001290,0.00001513,0.00001979,0.00000281,-0.00006665,-0.000
 07746,-0.00001553,-0.00011216,0.00027418,-0.00010997,-0.22313816,-0.17
 291139,-0.05861213,0.00012668,0.00007637,-0.00001953,0.00001851,0.0000
 0982,-0.00001015,-0.00000810,0.00000254,0.00000914,-0.00005505,-0.0002
 0946,0.00009068,0.00003513,0.00002806,-0.00001026,0.20924419,0.1794473
 8,0.00021891,-0.00023926,0.00041142,-0.00002789,0.00062943,0.00038440,
 0.00018520,-0.00038980,-0.00027490,0.00002642,0.00009999,-0.00021365,0
 .00003665,-0.00003772,0.00005899,-0.00013866,0.00009688,0.00023214,-0.
 00002519,-0.00003084,-0.00005111,-0.00007293,-0.00041972,-0.00458867,-
 0.00049894,0.00022316,0.00138960,0.00000116,-0.00000626,-0.00000203,0.
 00011222,-0.00002292,-0.00003938,0.00000881,0.00000258,0.00000185,0.00
 000465,-0.00001127,0.00000066,0.00000065,-0.00000690,-0.00000172,-0.00
 000164,-0.00000429,-0.00000123,0.00002385,0.00001906,-0.00000322,0.000
 12562,-0.00001349,0.00014081,-0.07697982,-0.07871789,-0.05033813,-0.00
 002312,-0.00001201,0.00000598,-0.00000753,-0.00000120,0.00000649,-0.00
 000239,-0.00000151,-0.00000065,-0.00001037,0.00004335,-0.00007052,-0.0
 0000665,-0.00001407,-0.00000472,0.04871759,0.05953950,0.04885981,-0.00
 006289,0.00015132,0.00009179,0.00002352,-0.00077657,-0.00002317,0.0007
 2552,0.00026308,-0.00000823,-0.00007347,0.00012218,-0.00001524,0.00007
 698,0.00002820,0.00000539,-0.00007444,-0.00006600,0.00002174,0.0000217
 0,-0.00001722,-0.00000499,-0.00144321,-0.00007999,-0.00068402,-0.00178
 138,0.00070666,0.00027088,-0.00000674,0.00000645,-0.00000208,0.0000452
 7,0.00001570,-0.00000848,0.00000459,0.00000262,0.00000432,0.00000115,-
 0.00000271,0.00000059,0.00000124,-0.00000114,-0.00000116,-0.00000068,-
 0.00000100,-0.00000025,-0.00000123,0.00000196,-0.00000153,0.00001027,0
 .00005109,-0.00001065,-0.25439927,0.05087966,0.22078024,-0.00000726,-0
 .00000398,0.00000098,-0.00000079,-0.00000129,-0.00000072,-0.00000185,-
 0.00000043,0.00000095,-0.00000890,-0.00002491,0.00000476,0.00000477,0.
 00000059,0.00000075,-0.02120871,0.01253945,0.02831775,0.27815223,-0.00
 002340,0.00033833,0.00004009,-0.00023751,-0.00174472,-0.00024863,0.001
 92955,-0.00128936,0.00058745,0.00019036,0.00056522,0.00011517,0.000225
 22,-0.00008651,-0.00002111,-0.00026312,-0.00015056,-0.00000328,0.00002
 945,-0.00002555,-0.00001957,-0.00147264,0.00098729,-0.00031124,-0.0013
 5067,0.00202470,-0.00172137,-0.00001989,-0.00001528,0.00000332,0.00016
 600,0.00002226,0.00000491,0.00004009,0.00002351,-0.00000946,0.00000820
 ,-0.00001527,0.00000082,0.00000976,-0.00002123,-0.00000256,-0.00000531
 ,-0.00000302,-0.00000060,0.00000825,0.00001254,0.00000384,0.00002248,0
 .00004446,0.00001784,0.08188330,-0.05289935,-0.10867310,-0.00002491,-0
 .00001543,0.00000287,-0.00000190,-0.00000253,-0.00000034,0.00000065,0.
 00000144,-0.00000127,-0.00000385,-0.00001433,-0.00000802,0.00000274,-0
 .00000236,0.00000018,-0.01732970,0.00569971,0.01926987,-0.06379627,0.0
 4655638,-0.00030208,0.00017566,0.00000038,0.00060608,-0.00055138,-0.00
 001170,-0.00122522,0.00126641,0.00005705,-0.00007636,-0.00035031,-0.00
 004228,-0.00013250,0.00007073,0.00001792,0.00023247,-0.00005557,0.0000
 0465,0.00004565,0.00004653,0.00001599,-0.00164351,0.00000525,-0.000115
 10,0.00109461,-0.00140826,-0.00008803,0.00000830,0.00002253,0.00000296
 ,-0.00020173,0.00002898,-0.00000420,-0.00002805,-0.00001105,-0.0000068
 0,-0.00000722,0.00001789,-0.00000043,-0.00000670,0.00001652,0.00000349
 ,0.00000371,0.00000529,0.00000176,-0.00002479,-0.00002221,-0.00000872,
 0.00005016,0.00008960,-0.00002719,0.25791247,-0.09023293,-0.26770129,0
 .00003480,0.00001889,-0.00000410,0.00000632,0.00000140,-0.00000396,-0.
 00000395,-0.00000030,0.00000482,-0.00004046,-0.00005013,0.00001544,0.0
 0001290,0.00000505,0.00000222,-0.00755590,-0.00005342,0.00410343,-0.24
 873915,0.09097566,0.26378113,-0.00259648,0.00227318,0.00042829,0.00205
 528,-0.00152542,-0.00002159,-0.00107113,0.00129906,0.00002688,0.001019
 64,-0.00195127,-0.00021218,-0.00337113,-0.00009894,-0.00062446,0.00967
 747,-0.00523813,0.00028325,0.00147181,0.00064919,-0.00007006,-0.000920
 23,0.00128495,0.00006066,0.00037100,-0.00014409,0.00000900,-0.00015215
 ,0.00004007,0.00006347,-0.01913383,-0.00875601,0.00344829,-0.00023835,
 0.00024235,0.00002701,0.00008372,0.00001375,-0.00000931,0.00006077,-0.
 00000747,0.00002054,-0.00006607,-0.00009795,-0.00001373,-0.00989544,0.
 01459941,0.00807308,0.00012709,-0.00015392,0.00005822,-0.00029408,0.00
 009279,0.00000692,-0.20384187,-0.21836626,0.00317127,-0.00249269,-0.00
 967088,-0.00415864,-0.00181330,0.00101833,-0.00060008,-0.00074620,0.00
 054274,-0.00049127,0.00097471,-0.00091820,0.00090662,0.00026978,-0.000
 07088,0.00001381,0.00000395,0.00001350,-0.00002045,0.33600479,-0.00130
 634,0.00309070,0.00043564,0.00075744,-0.00097081,-0.00003127,-0.000516
 33,0.00135387,0.00008593,0.00094108,-0.00179291,-0.00020932,-0.0029952
 5,0.00009514,-0.00049907,0.00799728,-0.00600545,0.00051728,-0.00159720
 ,-0.00199989,-0.00027737,-0.00035308,0.00099708,0.00001106,0.00025711,
 -0.00004971,0.00000770,-0.00012605,0.00004581,0.00005701,-0.01857839,-
 0.00268066,0.00295092,-0.00013236,0.00021711,0.00003194,0.00006224,0.0
 0001307,-0.00000723,0.00004764,0.00000040,0.00001991,-0.00004892,-0.00
 005922,-0.00000671,0.01515358,-0.01026563,-0.00957667,-0.00028905,-0.0
 0018740,0.00004030,-0.00014622,0.00006736,0.00000381,-0.20068487,-0.25
 697422,-0.02159310,-0.00747809,0.00091890,0.00941702,0.00199406,-0.000
 70242,0.00063849,0.00087145,-0.00038419,0.00045266,-0.00102579,0.00091
 390,-0.00092610,0.00011016,-0.00004338,0.00000514,0.00000227,0.0000089
 6,-0.00001054,0.22047805,0.30868683,0.00082514,-0.00035701,0.00014972,
 -0.00061123,0.00035052,-0.00001753,0.00028817,-0.00019822,-0.00000840,
 -0.00014474,0.00040992,-0.00003257,0.00076584,0.00001589,-0.00024179,-
 0.00177546,0.00117696,0.00038971,-0.00074606,-0.00049836,-0.00021086,0
 .00027770,-0.00029547,-0.00001520,-0.00008414,0.00004196,0.00000030,0.
 00004637,-0.00001461,0.00003803,0.00519951,0.00277482,0.00259626,0.000
 06766,-0.00004669,0.00000641,-0.00000989,0.00000535,0.00000612,-0.0000
 2260,-0.00000170,-0.00000056,0.00001808,0.00002441,0.00000430,0.009732
 68,-0.00930684,0.00024597,-0.00009748,0.00001276,-0.00002460,0.0000788
 7,-0.00002210,0.00000564,0.03127285,0.01288655,-0.04509578,-0.00320190
 ,0.00681663,-0.00557534,-0.00021731,0.00032035,0.00059086,0.00049856,-
 0.00028842,0.00034324,-0.00060478,0.00051367,-0.00061096,-0.00007664,0
 .00001973,-0.00000764,-0.00000079,-0.00000248,0.00000378,-0.22180702,0
 .03757775,0.48419677,0.00000562,0.00005532,-0.00002064,-0.00000272,0.0
 0001054,0.00000489,0.00000858,-0.00002397,0.00000128,-0.00003736,0.000
 00612,0.00000632,-0.00001806,0.00003221,0.00004693,-0.00001051,-0.0001
 9683,-0.00004791,0.00000569,-0.00003289,0.00004479,0.00000130,0.000000
 26,-0.00000449,-0.00000354,0.00000181,0.00000018,-0.00000692,0.0000029
 0,-0.00000664,-0.00059697,-0.00089561,-0.00046991,-0.00000254,0.000003
 11,0.00000216,0.00000036,0.00000187,-0.00000234,0.00000173,0.00000155,
 0.00000003,-0.00000147,-0.00000081,-0.00000102,-0.00023024,0.00083667,
 -0.00015053,-0.00000147,0.00000074,0.00000675,0.00000346,-0.00000044,-
 0.00000212,-0.01067509,0.00532879,0.02781463,-0.00138855,-0.00032788,0
 .00166917,0.00001764,0.00009168,0.00001867,-0.00000508,-0.00000945,-0.
 00002506,0.00000515,0.00001978,0.00002812,-0.00000261,0.00000078,0.000
 00184,-0.00000039,-0.00000039,0.00000059,-0.10548706,-0.01339443,0.180
 32862,0.11842106,-0.00002150,0.00026120,0.00004550,0.00000153,-0.00002
 744,-0.00000090,-0.00000580,0.00007613,0.00001004,0.00003544,-0.000123
 48,0.00001554,-0.00021677,0.00003245,-0.00002173,0.00051384,-0.0005181
 2,-0.00009387,-0.00026163,-0.00024176,-0.00006620,-0.00000385,0.000056
 24,-0.00000366,0.00001263,0.00000189,-0.00000095,-0.00001260,0.0000066
 7,-0.00000599,-0.00179580,-0.00088424,-0.00027767,-0.00001068,0.000018
 43,0.00000568,0.00000234,0.00000033,0.00000039,0.00000279,0.00000023,-
 0.00000226,-0.00000296,-0.00000245,-0.00000058,0.00315814,-0.00283991,
 -0.00020938,-0.00003620,-0.00001960,0.00000342,-0.00000449,0.00000236,
 0.00000042,-0.01181035,0.00393259,0.03124221,-0.00237228,0.00419871,-0
 .00227829,-0.00009183,0.00010384,0.00015711,0.00015652,-0.00008359,0.0
 0010173,-0.00017901,0.00017913,-0.00018994,0.00000163,-0.00000201,0.00
 000020,0.00000027,0.00000069,-0.00000028,0.00445204,-0.03429327,-0.051
 91538,0.00848856,0.03016497,-0.00023438,0.00021613,0.00001808,0.000188
 96,-0.00014204,0.00000260,-0.00010092,0.00010603,0.00000362,0.00009617
 ,-0.00015097,-0.00000986,-0.00026537,-0.00003905,-0.00007328,0.0007946
 7,-0.00016988,0.00003966,0.00016351,0.00001156,-0.00000810,-0.00007758
 ,0.00011406,0.00000259,0.00003094,-0.00001281,0.00000068,-0.00001086,0
 .00000058,0.00000723,-0.00143677,-0.00082852,0.00031111,-0.00002141,0.
 00001334,0.00000335,0.00000800,0.00000211,-0.00000087,0.00000500,-0.00
 000108,0.00000156,-0.00000532,-0.00000778,0.00000009,-0.00140126,0.001
 31630,0.00082568,0.00000379,-0.00001625,0.00000885,-0.00002381,0.00000
 791,-0.00000107,-0.00141281,-0.00273994,-0.00324762,0.00154071,-0.0020
 9159,-0.00138350,-0.00007536,0.00006729,0.00002181,-0.00004675,0.00003
 646,-0.00003654,0.00007118,-0.00005660,0.00005350,0.00002219,-0.000005
 94,0.00000201,0.00000033,0.00000098,-0.00000121,0.21143149,-0.01911520
 ,-0.43673591,-0.20924432,0.02348485,0.44019554\\-0.00005624,0.00004732
 ,0.00001947,0.00008888,0.00003537,-0.00000260,-0.00002862,-0.00008539,
 0.00001700,-0.00005339,0.00004992,-0.00000890,0.00005766,0.00001416,0.
 00001294,-0.00002101,-0.00007972,-0.00003256,0.00002726,-0.00000604,0.
 00000231,-0.00001694,0.00000019,-0.00001101,0.00001580,0.00000876,-0.0
 0001250,0.00000621,-0.00000067,-0.00000138,0.00001748,0.00001211,0.000
 00332,-0.00001019,-0.00000409,-0.00000113,-0.00000032,-0.00000203,-0.0
 0000441,-0.00000036,-0.00000121,0.00000053,0.00000212,0.00000179,-0.00
 000192,-0.00002230,0.00003600,-0.00003846,0.00000150,-0.00001750,0.000
 01172,0.00000458,-0.00002237,-0.00000144,0.00001332,-0.00000170,0.0000
 0171,-0.00002237,-0.00001519,0.00005207,0.00001106,-0.00000455,0.00000
 313,0.00000825,0.00002456,-0.00001348,-0.00000064,-0.00002064,0.000018
 21,-0.00002729,0.00003543,0.00000147,0.00000318,0.00000479,0.00000176,
 0.00000170,-0.00000262,-0.00001970,0.00000067,-0.00000668,0.00000383\\
 \@


 CHARLIE BROWN -- WHICH DO YOU THINK LASTS LONGER IN LIFE, THE GOOD THINGS 
                  OR THE BAD THINGS?
 LINUS --         GOOD THINGS LAST EIGHT SECONDS ..
                  BAD THINGS LAST THREE WEEKS
 CHARLIE BROWN -- WHAT ABOUT IN BETWEEN?
 SNOOPY --        IN BETWEEN YOU SHOULD TAKE A NAP ...
 Job cpu time:       0 days  2 hours 41 minutes 38.4 seconds.
 Elapsed time:       0 days  0 hours  3 minutes 15.5 seconds.
 File lengths (MBytes):  RWF=    444 Int=      0 D2E=      0 Chk=     18 Scr=      1
 Normal termination of Gaussian 16 at Thu Jan  5 11:17:19 2023.
