 Entering Gaussian System, Link 0=/shared/gaussian/g16.b01/AVX2/g16/g16
 Initial command:
 /shared/gaussian/g16.b01/AVX2/g16/l1.exe "/scratch/marlene/SCRGAU.103017.Thymine6311-opt-solv/Gau-65607.inp" -scrdir="/scratch/marlene/SCRGAU.103017.Thymine6311-opt-solv/"
 Entering Link 1 = /shared/gaussian/g16.b01/AVX2/g16/l1.exe PID=     65608.
  
 Copyright (c) 1988-2017, Gaussian, Inc.  All Rights Reserved.
  
 This is part of the Gaussian(R) 16 program.  It is based on
 the Gaussian(R) 09 system (copyright 2009, Gaussian, Inc.),
 the Gaussian(R) 03 system (copyright 2003, Gaussian, Inc.),
 the Gaussian(R) 98 system (copyright 1998, Gaussian, Inc.),
 the Gaussian(R) 94 system (copyright 1995, Gaussian, Inc.),
 the Gaussian 92(TM) system (copyright 1992, Gaussian, Inc.),
 the Gaussian 90(TM) system (copyright 1990, Gaussian, Inc.),
 the Gaussian 88(TM) system (copyright 1988, Gaussian, Inc.),
 the Gaussian 86(TM) system (copyright 1986, Carnegie Mellon
 University), and the Gaussian 82(TM) system (copyright 1983,
 Carnegie Mellon University). Gaussian is a federally registered
 trademark of Gaussian, Inc.
  
 This software contains proprietary and confidential information,
 including trade secrets, belonging to Gaussian, Inc.
  
 This software is provided under written license and may be
 used, copied, transmitted, or stored only in accord with that
 written license.
  
 The following legend is applicable only to US Government
 contracts under FAR:
  
                    RESTRICTED RIGHTS LEGEND
  
 Use, reproduction and disclosure by the US Government is
 subject to restrictions as set forth in subparagraphs (a)
 and (c) of the Commercial Computer Software - Restricted
 Rights clause in FAR 52.227-19.
  
 Gaussian, Inc.
 340 Quinnipiac St., Bldg. 40, Wallingford CT 06492
  
  
 ---------------------------------------------------------------
 Warning -- This program may not be used in any manner that
 competes with the business of Gaussian, Inc. or will provide
 assistance to any competitor of Gaussian, Inc.  The licensee
 of this program is prohibited from giving any competitor of
 Gaussian, Inc. access to this program.  By using this program,
 the user acknowledges that Gaussian, Inc. is engaged in the
 business of creating and licensing software in the field of
 computational chemistry and represents and warrants to the
 licensee that it is not a competitor of Gaussian, Inc. and that
 it will not use this program in any manner prohibited above.
 ---------------------------------------------------------------
  

 Cite this work as:
 Gaussian 16, Revision B.01,
 M. J. Frisch, G. W. Trucks, H. B. Schlegel, G. E. Scuseria, 
 M. A. Robb, J. R. Cheeseman, G. Scalmani, V. Barone, 
 G. A. Petersson, H. Nakatsuji, X. Li, M. Caricato, A. V. Marenich, 
 J. Bloino, B. G. Janesko, R. Gomperts, B. Mennucci, H. P. Hratchian, 
 J. V. Ortiz, A. F. Izmaylov, J. L. Sonnenberg, D. Williams-Young, 
 F. Ding, F. Lipparini, F. Egidi, J. Goings, B. Peng, A. Petrone, 
 T. Henderson, D. Ranasinghe, V. G. Zakrzewski, J. Gao, N. Rega, 
 G. Zheng, W. Liang, M. Hada, M. Ehara, K. Toyota, R. Fukuda, 
 J. Hasegawa, M. Ishida, T. Nakajima, Y. Honda, O. Kitao, H. Nakai, 
 T. Vreven, K. Throssell, J. A. Montgomery, Jr., J. E. Peralta, 
 F. Ogliaro, M. J. Bearpark, J. J. Heyd, E. N. Brothers, K. N. Kudin, 
 V. N. Staroverov, T. A. Keith, R. Kobayashi, J. Normand, 
 K. Raghavachari, A. P. Rendell, J. C. Burant, S. S. Iyengar, 
 J. Tomasi, M. Cossi, J. M. Millam, M. Klene, C. Adamo, R. Cammi, 
 J. W. Ochterski, R. L. Martin, K. Morokuma, O. Farkas, 
 J. B. Foresman, and D. J. Fox, Gaussian, Inc., Wallingford CT, 2016.
 
 ******************************************
 Gaussian 16:  ES64L-G16RevB.01 20-Dec-2017
                 5-Jan-2023 
 ******************************************
 %nprocshared=52
 Will use up to   52 processors via shared memory.
 %mem=10GB
 %chk=thymine6311-opt.chk
 -----------------------------------------------------------------
 #p opt cam-b3lyp/6-311+G(d,p) scrf=(solvent=water,pcm) symm=loose
 -----------------------------------------------------------------
 1/18=20,19=15,26=3,38=1/1,3;
 2/9=110,12=2,17=4,18=3,40=1/2;
 3/5=4,6=6,7=111,11=2,25=1,30=1,70=2201,71=1,72=1,74=-40/1,2,3;
 4//1;
 5/5=2,38=5,53=1/2;
 6/7=2,8=2,9=2,10=2,28=1/1;
 7//1,2,3,16;
 1/18=20,19=15,26=3/3(2);
 2/9=110/2;
 99//99;
 2/9=110/2;
 3/5=4,6=6,7=111,11=2,25=1,30=1,70=2205,71=1,72=1,74=-40/1,2,3;
 4/5=5,16=3,69=1/1;
 5/5=2,38=5,53=1/2;
 7//1,2,3,16;
 1/18=20,19=15,26=3/3(-5);
 2/9=110/2;
 6/7=2,8=2,9=2,10=2,19=2,28=1/1;
 99/9=1/99;
 Leave Link    1 at Thu Jan  5 10:30:17 2023, MaxMem=  1342177280 cpu:               2.3 elap:               0.1
 (Enter /shared/gaussian/g16.b01/AVX2/g16/l101.exe)
 ----------------
 Thymine solvated
 ----------------
 Symbolic Z-matrix:
 Charge =  0 Multiplicity = 1
 N                     0.11121  -1.66569   0. 
 C                     1.31609  -1.0272    0. 
 N                     1.21856   0.35944   0. 
 C                     0.        1.04077   0. 
 C                    -1.20335   0.34764   0. 
 C                    -1.13604  -1.02093   0. 
 O                     2.38903  -1.58705   0. 
 O                     0.13172   2.35499   0. 
 H                     0.16572  -2.67104   0. 
 H                     2.09068   0.86428   0. 
 C                    -2.50634   1.09371   0. 
 H                    -2.00432  -1.66046   0. 
 H                    -3.34533   0.39823   0. 
 H                    -2.60166   1.73261   0.88065 
 H                    -2.60166   1.73261  -0.88065 
 
 ITRead=  0  0  0  0  0  0  0  0  0  0  0  0  0  0  0
 MicOpt= -1 -1 -1 -1 -1 -1 -1 -1 -1 -1 -1 -1 -1 -1 -1
 NAtoms=     15 NQM=       15 NQMF=       0 NMMI=      0 NMMIF=      0
                NMic=       0 NMicF=      0.
                    Isotopes and Nuclear Properties:
 (Nuclear quadrupole moments (NQMom) in fm**2, nuclear magnetic moments (NMagM)
  in nuclear magnetons)

  Atom         1           2           3           4           5           6           7           8           9          10
 IAtWgt=          14          12          14          12          12          12          16          16           1           1
 AtmWgt=  14.0030740  12.0000000  14.0030740  12.0000000  12.0000000  12.0000000  15.9949146  15.9949146   1.0078250   1.0078250
 NucSpn=           2           0           2           0           0           0           0           0           1           1
 AtZEff=  -0.0000000  -0.0000000  -0.0000000  -0.0000000  -0.0000000  -0.0000000  -0.0000000  -0.0000000  -0.0000000  -0.0000000
 NQMom=    2.0440000   0.0000000   2.0440000   0.0000000   0.0000000   0.0000000   0.0000000   0.0000000   0.0000000   0.0000000
 NMagM=    0.4037610   0.0000000   0.4037610   0.0000000   0.0000000   0.0000000   0.0000000   0.0000000   2.7928460   2.7928460
 AtZNuc=   7.0000000   6.0000000   7.0000000   6.0000000   6.0000000   6.0000000   8.0000000   8.0000000   1.0000000   1.0000000

  Atom        11          12          13          14          15
 IAtWgt=          12           1           1           1           1
 AtmWgt=  12.0000000   1.0078250   1.0078250   1.0078250   1.0078250
 NucSpn=           0           1           1           1           1
 AtZEff=  -0.0000000  -0.0000000  -0.0000000  -0.0000000  -0.0000000
 NQMom=    0.0000000   0.0000000   0.0000000   0.0000000   0.0000000
 NMagM=    0.0000000   2.7928460   2.7928460   2.7928460   2.7928460
 AtZNuc=   6.0000000   1.0000000   1.0000000   1.0000000   1.0000000
 Leave Link  101 at Thu Jan  5 10:30:18 2023, MaxMem=  1342177280 cpu:              35.7 elap:               0.7
 (Enter /shared/gaussian/g16.b01/AVX2/g16/l103.exe)

 GradGradGradGradGradGradGradGradGradGradGradGradGradGradGradGradGradGrad
 Berny optimization.
 Initialization pass.
                           ----------------------------
                           !    Initial Parameters    !
                           ! (Angstroms and Degrees)  !
 --------------------------                            --------------------------
 ! Name  Definition              Value          Derivative Info.                !
 --------------------------------------------------------------------------------
 ! R1    R(1,2)                  1.3636         estimate D2E/DX2                !
 ! R2    R(1,6)                  1.4041         estimate D2E/DX2                !
 ! R3    R(1,9)                  1.0068         estimate D2E/DX2                !
 ! R4    R(2,3)                  1.3901         estimate D2E/DX2                !
 ! R5    R(2,7)                  1.2102         estimate D2E/DX2                !
 ! R6    R(3,4)                  1.3961         estimate D2E/DX2                !
 ! R7    R(3,10)                 1.0077         estimate D2E/DX2                !
 ! R8    R(4,5)                  1.3887         estimate D2E/DX2                !
 ! R9    R(4,8)                  1.3208         estimate D2E/DX2                !
 ! R10   R(5,6)                  1.3702         estimate D2E/DX2                !
 ! R11   R(5,11)                 1.5015         estimate D2E/DX2                !
 ! R12   R(6,12)                 1.0784         estimate D2E/DX2                !
 ! R13   R(11,13)                1.0898         estimate D2E/DX2                !
 ! R14   R(11,14)                1.0922         estimate D2E/DX2                !
 ! R15   R(11,15)                1.0922         estimate D2E/DX2                !
 ! A1    A(2,1,6)              124.7428         estimate D2E/DX2                !
 ! A2    A(2,1,9)              114.8171         estimate D2E/DX2                !
 ! A3    A(6,1,9)              120.44           estimate D2E/DX2                !
 ! A4    A(1,2,3)              113.8972         estimate D2E/DX2                !
 ! A5    A(1,2,7)              124.5245         estimate D2E/DX2                !
 ! A6    A(3,2,7)              121.5784         estimate D2E/DX2                !
 ! A7    A(2,3,4)              123.234          estimate D2E/DX2                !
 ! A8    A(2,3,10)             116.0419         estimate D2E/DX2                !
 ! A9    A(4,3,10)             120.7241         estimate D2E/DX2                !
 ! A10   A(3,4,5)              120.8472         estimate D2E/DX2                !
 ! A11   A(3,4,8)              113.4872         estimate D2E/DX2                !
 ! A12   A(5,4,8)              125.6656         estimate D2E/DX2                !
 ! A13   A(4,5,6)              117.1263         estimate D2E/DX2                !
 ! A14   A(4,5,11)             120.263          estimate D2E/DX2                !
 ! A15   A(6,5,11)             122.6107         estimate D2E/DX2                !
 ! A16   A(1,6,5)              120.1526         estimate D2E/DX2                !
 ! A17   A(1,6,12)             116.2897         estimate D2E/DX2                !
 ! A18   A(5,6,12)             123.5577         estimate D2E/DX2                !
 ! A19   A(5,11,13)            110.548          estimate D2E/DX2                !
 ! A20   A(5,11,14)            111.4943         estimate D2E/DX2                !
 ! A21   A(5,11,15)            111.4943         estimate D2E/DX2                !
 ! A22   A(13,11,14)           107.827          estimate D2E/DX2                !
 ! A23   A(13,11,15)           107.827          estimate D2E/DX2                !
 ! A24   A(14,11,15)           107.4791         estimate D2E/DX2                !
 ! D1    D(6,1,2,3)              0.0            estimate D2E/DX2                !
 ! D2    D(6,1,2,7)            180.0            estimate D2E/DX2                !
 ! D3    D(9,1,2,3)            180.0            estimate D2E/DX2                !
 ! D4    D(9,1,2,7)              0.0            estimate D2E/DX2                !
 ! D5    D(2,1,6,5)              0.0            estimate D2E/DX2                !
 ! D6    D(2,1,6,12)           180.0            estimate D2E/DX2                !
 ! D7    D(9,1,6,5)            180.0            estimate D2E/DX2                !
 ! D8    D(9,1,6,12)             0.0            estimate D2E/DX2                !
 ! D9    D(1,2,3,4)              0.0            estimate D2E/DX2                !
 ! D10   D(1,2,3,10)           180.0            estimate D2E/DX2                !
 ! D11   D(7,2,3,4)            180.0            estimate D2E/DX2                !
 ! D12   D(7,2,3,10)             0.0            estimate D2E/DX2                !
 ! D13   D(2,3,4,5)              0.0            estimate D2E/DX2                !
 ! D14   D(2,3,4,8)            180.0            estimate D2E/DX2                !
 ! D15   D(10,3,4,5)           180.0            estimate D2E/DX2                !
 ! D16   D(10,3,4,8)             0.0            estimate D2E/DX2                !
 ! D17   D(3,4,5,6)              0.0            estimate D2E/DX2                !
 ! D18   D(3,4,5,11)           180.0            estimate D2E/DX2                !
 ! D19   D(8,4,5,6)            180.0            estimate D2E/DX2                !
 ! D20   D(8,4,5,11)             0.0            estimate D2E/DX2                !
 ! D21   D(4,5,6,1)              0.0            estimate D2E/DX2                !
 ! D22   D(4,5,6,12)           180.0            estimate D2E/DX2                !
 ! D23   D(11,5,6,1)           180.0            estimate D2E/DX2                !
 ! D24   D(11,5,6,12)            0.0            estimate D2E/DX2                !
 ! D25   D(4,5,11,13)          180.0            estimate D2E/DX2                !
 ! D26   D(4,5,11,14)          -60.0666         estimate D2E/DX2                !
 ! D27   D(4,5,11,15)           60.0666         estimate D2E/DX2                !
 ! D28   D(6,5,11,13)            0.0            estimate D2E/DX2                !
 ! D29   D(6,5,11,14)          119.9334         estimate D2E/DX2                !
 ! D30   D(6,5,11,15)         -119.9334         estimate D2E/DX2                !
 --------------------------------------------------------------------------------
 Trust Radius=3.00D-01 FncErr=1.00D-07 GrdErr=1.00D-06 EigMax=2.50D+02 EigMin=1.00D-04
 Number of steps in this run=     79 maximum allowed number of steps=    100.
 GradGradGradGradGradGradGradGradGradGradGradGradGradGradGradGradGradGrad

 Leave Link  103 at Thu Jan  5 10:30:18 2023, MaxMem=  1342177280 cpu:               0.5 elap:               0.0
 (Enter /shared/gaussian/g16.b01/AVX2/g16/l202.exe)
                          Input orientation:                          
 ---------------------------------------------------------------------
 Center     Atomic      Atomic             Coordinates (Angstroms)
 Number     Number       Type             X           Y           Z
 ---------------------------------------------------------------------
      1          7           0        0.111214   -1.665694    0.000000
      2          6           0        1.316088   -1.027196    0.000000
      3          7           0        1.218559    0.359441    0.000000
      4          6           0        0.000000    1.040770    0.000000
      5          6           0       -1.203350    0.347636    0.000000
      6          6           0       -1.136037   -1.020927    0.000000
      7          8           0        2.389030   -1.587046    0.000000
      8          8           0        0.131721    2.354993    0.000000
      9          1           0        0.165720   -2.671043    0.000000
     10          1           0        2.090679    0.864284    0.000000
     11          6           0       -2.506343    1.093712    0.000000
     12          1           0       -2.004323   -1.660464    0.000000
     13          1           0       -3.345334    0.398228    0.000000
     14          1           0       -2.601655    1.732606    0.880648
     15          1           0       -2.601655    1.732606   -0.880648
 ---------------------------------------------------------------------
                    Distance matrix (angstroms):
                    1          2          3          4          5
     1  N    0.000000
     2  C    1.363599   0.000000
     3  N    2.308113   1.390063   0.000000
     4  C    2.708748   2.451239   1.396100   0.000000
     5  C    2.404491   2.870145   2.421938   1.388699   0.000000
     6  C    1.404051   2.452133   2.729384   2.353970   1.370217
     7  O    2.279173   1.210222   2.271302   3.551462   4.080219
     8  O    4.020739   3.583564   2.272321   1.320808   2.410788
     9  H    1.006825   2.006385   3.208162   3.715511   3.314631
    10  H    3.212331   2.043939   1.007700   2.098115   3.334299
    11  C    3.803410   4.371410   3.796584   2.506902   1.501473
    12  H    2.115543   3.380260   3.803549   3.363625   2.161949
    13  H    4.025854   4.874494   4.564058   3.406482   2.142581
    14  H    4.436625   4.872449   4.153933   2.832452   2.156140
    15  H    4.436625   4.872449   4.153933   2.832452   2.156140
                    6          7          8          9         10
     6  C    0.000000
     7  O    3.570236   0.000000
     8  O    3.606112   4.542589   0.000000
     9  H    2.101774   2.473491   5.026151   0.000000
    10  H    3.737073   2.469419   2.461652   4.025420   0.000000
    11  C    2.519809   5.581321   2.924074   4.616633   4.602744
    12  H    1.078391   4.393966   4.548250   2.393816   4.810758
    13  H    2.625832   6.068298   3.989842   4.663467   5.455955
    14  H    3.241222   6.058264   2.938410   5.275038   4.852579
    15  H    3.241222   6.058264   2.938410   5.275038   4.852579
                   11         12         13         14         15
    11  C    0.000000
    12  H    2.799555   0.000000
    13  H    1.089772   2.456934   0.000000
    14  H    1.092159   3.556019   1.763282   0.000000
    15  H    1.092159   3.556019   1.763282   1.761296   0.000000
 Stoichiometry    C5H6N2O2
 Framework group  CS[SG(C5H4N2O2),X(H2)]
 Deg. of freedom    26
 Full point group                 CS      NOp   2
 Largest Abelian subgroup         CS      NOp   2
 Largest concise Abelian subgroup CS      NOp   2
                         Standard orientation:                         
 ---------------------------------------------------------------------
 Center     Atomic      Atomic             Coordinates (Angstroms)
 Number     Number       Type             X           Y           Z
 ---------------------------------------------------------------------
      1          7           0        0.111214   -1.665694    0.000000
      2          6           0        1.316088   -1.027196    0.000000
      3          7           0        1.218559    0.359441    0.000000
      4          6           0        0.000000    1.040770    0.000000
      5          6           0       -1.203350    0.347636    0.000000
      6          6           0       -1.136037   -1.020927    0.000000
      7          8           0        2.389030   -1.587046    0.000000
      8          8           0        0.131721    2.354993    0.000000
      9          1           0        0.165720   -2.671043    0.000000
     10          1           0        2.090679    0.864284    0.000000
     11          6           0       -2.506343    1.093712    0.000000
     12          1           0       -2.004323   -1.660464    0.000000
     13          1           0       -3.345334    0.398228    0.000000
     14          1           0       -2.601655    1.732606    0.880648
     15          1           0       -2.601655    1.732606   -0.880648
 ---------------------------------------------------------------------
 Rotational constants (GHZ):           3.1671368           1.4095213           0.9813379
 Leave Link  202 at Thu Jan  5 10:30:18 2023, MaxMem=  1342177280 cpu:               0.2 elap:               0.0
 (Enter /shared/gaussian/g16.b01/AVX2/g16/l301.exe)
 Standard basis: 6-311+G(d,p) (5D, 7F)
 Ernie: Thresh=  0.10000D-02 Tol=  0.10000D-05 Strict=F.
 There are   179 symmetry adapted cartesian basis functions of A'  symmetry.
 There are    64 symmetry adapted cartesian basis functions of A"  symmetry.
 There are   170 symmetry adapted basis functions of A'  symmetry.
 There are    64 symmetry adapted basis functions of A"  symmetry.
   234 basis functions,   372 primitive gaussians,   243 cartesian basis functions
    33 alpha electrons       33 beta electrons
       nuclear repulsion energy       438.3991502045 Hartrees.
 IExCor=20419 DFT=T Ex+Corr=CAM-B3LYP ExCW=0 ScaHFX=  1.000000
 ScaDFX=  1.000000  1.000000  1.000000  0.810000 ScalE2=  1.000000  1.000000
 IRadAn=      5 IRanWt=     -1 IRanGd=            0 ICorTp=0 IEmpDi=  4
 HFx  wShort=  0.000000 wLong=  0.330000 cFull=  0.190000 cShort=  0.000000 cLong=  0.460000
 DFx  wShort=  0.000000 wLong=  0.330000 cFull=  0.190000 cShort=  0.000000 cLong=  0.460000
 NAtoms=   15 NActive=   15 NUniq=   14 SFac= 1.15D+00 NAtFMM=   60 NAOKFM=F Big=F
 Integral buffers will be    131072 words long.
 Raffenetti 2 integral format.
 Two-electron integral symmetry is turned on.
 ------------------------------------------------------------------------------
 Polarizable Continuum Model (PCM)
 =================================
 Model                : PCM.
 Atomic radii         : UFF (Universal Force Field).
 Polarization charges : Total charges.
 Charge compensation  : None.
 Solution method      : On-the-fly selection.
 Cavity type          : Scaled VdW (van der Waals Surface) (Alpha=1.100).
 Cavity algorithm     : GePol (No added spheres)
                        Default sphere list used, NSphG=   15.
                        Lebedev-Laikov grids with approx.  5.0 points / Ang**2.
                        Smoothing algorithm: York/Karplus (Gamma=1.0000).
                        Polarization charges: spherical gaussians, with
                                              point-specific exponents (IZeta= 3).
                        Self-potential: point-specific (ISelfS= 7).
                        Self-field    : sphere-specific E.n sum rule (ISelfD= 2).
 1st derivatives      : Analytical E(r).r(x)/FMM algorithm (CHGder, D1EAlg=3).
                        Cavity 1st derivative terms included.
 Solvent              : Water, Eps=  78.355300 Eps(inf)=   1.777849
 ------------------------------------------------------------------------------
 Spheres list:
 ISph  on   Nord     Re0    Alpha      Xe            Ye            Ze
    1   N      1    1.8300  1.100      0.111214     -1.665694      0.000000
    2   C      2    1.9255  1.100      1.316088     -1.027196      0.000000
    3   N      3    1.8300  1.100      1.218559      0.359441      0.000000
    4   C      4    1.9255  1.100      0.000000      1.040770      0.000000
    5   C      5    1.9255  1.100     -1.203350      0.347636      0.000000
    6   C      6    1.9255  1.100     -1.136037     -1.020927      0.000000
    7   O      7    1.7500  1.100      2.389030     -1.587046      0.000000
    8   O      8    1.7500  1.100      0.131721      2.354993      0.000000
    9   H      9    1.4430  1.100      0.165720     -2.671043      0.000000
   10   H     10    1.4430  1.100      2.090679      0.864284      0.000000
   11   C     11    1.9255  1.100     -2.506343      1.093712      0.000000
   12   H     12    1.4430  1.100     -2.004323     -1.660464      0.000000
   13   H     13    1.4430  1.100     -3.345334      0.398228      0.000000
   14   H     14    1.4430  1.100     -2.601655      1.732606      0.880648
   15   H     15    1.4430  1.100     -2.601655      1.732606     -0.880648
 ------------------------------------------------------------------------------
 GePol: Number of generator spheres                  =      15
 GePol: Total number of spheres                      =      15
 GePol: Number of exposed spheres                    =      15 (100.00%)
 GePol: Number of points                             =    1371
 GePol: Average weight of points                     =       0.13
 GePol: Minimum weight of points                     =   0.15D-09
 GePol: Maximum weight of points                     =    0.20577
 GePol: Number of points with low weight             =      79
 GePol: Fraction of low-weight points (<1% of avg)   =       5.76%
 GePol: Cavity surface area                          =    177.413 Ang**2
 GePol: Cavity volume                                =    171.756 Ang**3
 Leave Link  301 at Thu Jan  5 10:30:18 2023, MaxMem=  1342177280 cpu:               3.9 elap:               0.1
 (Enter /shared/gaussian/g16.b01/AVX2/g16/l302.exe)
 NPDir=0 NMtPBC=     1 NCelOv=     1 NCel=       1 NClECP=     1 NCelD=      1
         NCelK=      1 NCelE2=     1 NClLst=     1 CellRange=     0.0.
 One-electron integrals computed using PRISM.
 One-electron integral symmetry used in STVInt
 NBasis=   234 RedAO= T EigKep=  9.77D-06  NBF=   170    64
 NBsUse=   234 1.00D-06 EigRej= -1.00D+00 NBFU=   170    64
 Precomputing XC quadrature grid using
 IXCGrd= 4 IRadAn=           5 IRanWt=          -1 IRanGd=           0 AccXCQ= 0.00D+00.
 Generated NRdTot=       0 NPtTot=           0 NUsed=           0 NTot=          32
 NSgBfM=   243   243   243   243   243 MxSgAt=    15 MxSgA2=    15.
 Leave Link  302 at Thu Jan  5 10:30:18 2023, MaxMem=  1342177280 cpu:              13.8 elap:               0.3
 (Enter /shared/gaussian/g16.b01/AVX2/g16/l303.exe)
 DipDrv:  MaxL=1.
 Leave Link  303 at Thu Jan  5 10:30:18 2023, MaxMem=  1342177280 cpu:               2.2 elap:               0.1
 (Enter /shared/gaussian/g16.b01/AVX2/g16/l401.exe)
 ExpMin= 4.38D-02 ExpMax= 8.59D+03 ExpMxC= 1.30D+03 IAcc=3 IRadAn=         5 AccDes= 0.00D+00
 Harris functional with IExCor=20419 and IRadAn=       5 diagonalized for initial guess.
 HarFok:  IExCor=20419 AccDes= 0.00D+00 IRadAn=         5 IDoV= 1 UseB2=F ITyADJ=14
 ICtDFT=  3500011 ScaDFX=  1.000000  1.000000  1.000000  1.000000
 FoFCou: FMM=F IPFlag=           0 FMFlag=      100000 FMFlg1=           0
         NFxFlg=           0 DoJE=T BraDBF=F KetDBF=T FulRan=T
         wScrn=  0.000000 ICntrl=       500 IOpCl=  0 I1Cent=   200000004 NGrid=           0
         NMat0=    1 NMatS0=      1 NMatT0=    0 NMatD0=    1 NMtDS0=    0 NMtDT0=    0
 Petite list used in FoFCou.
 Harris En= -437.697914368041    
 JPrj=0 DoOrth=F DoCkMO=F.
 Initial guess orbital symmetries:
       Occupied  (A') (A') (A') (A') (A') (A') (A') (A') (A') (A')
                 (A') (A') (A') (A') (A') (A') (A') (A') (A') (A')
                 (A") (A') (A') (A') (A") (A') (A') (A") (A") (A')
                 (A") (A') (A")
       Virtual   (A") (A') (A') (A') (A") (A') (A') (A') (A") (A")
                 (A') (A') (A") (A') (A") (A') (A') (A') (A") (A")
                 (A') (A') (A') (A") (A') (A') (A') (A") (A') (A')
                 (A") (A') (A') (A") (A') (A') (A') (A') (A') (A')
                 (A") (A') (A') (A') (A') (A') (A') (A') (A') (A')
                 (A") (A') (A') (A') (A') (A') (A') (A") (A") (A')
                 (A") (A') (A") (A') (A') (A") (A') (A') (A') (A')
                 (A') (A') (A') (A') (A") (A') (A') (A") (A') (A')
                 (A") (A') (A') (A') (A") (A') (A") (A') (A") (A")
                 (A') (A') (A') (A') (A') (A") (A") (A") (A') (A")
                 (A') (A') (A") (A') (A') (A") (A') (A') (A") (A')
                 (A") (A') (A') (A") (A') (A') (A') (A") (A') (A')
                 (A') (A') (A") (A") (A') (A') (A') (A') (A') (A')
                 (A') (A") (A") (A') (A") (A') (A") (A') (A") (A")
                 (A') (A') (A") (A') (A') (A') (A') (A") (A') (A")
                 (A') (A") (A') (A") (A') (A") (A') (A') (A') (A")
                 (A') (A') (A') (A") (A') (A') (A") (A') (A') (A')
                 (A') (A') (A') (A') (A") (A') (A") (A") (A') (A')
                 (A') (A') (A') (A') (A') (A") (A") (A') (A') (A')
                 (A') (A') (A') (A') (A') (A') (A') (A') (A') (A')
                 (A')
 The electronic state of the initial guess is 1-A'.
 Leave Link  401 at Thu Jan  5 10:30:19 2023, MaxMem=  1342177280 cpu:              18.2 elap:               0.4
 (Enter /shared/gaussian/g16.b01/AVX2/g16/l502.exe)
 Integral symmetry usage will be decided dynamically.
 Closed shell SCF:
 Using DIIS extrapolation, IDIIS=  1040.
 NGot=  1342177280 LenX=  1342043586 LenY=  1341984096
 Requested convergence on RMS density matrix=1.00D-08 within 128 cycles.
 Requested convergence on MAX density matrix=1.00D-06.
 Requested convergence on             energy=1.00D-06.
 No special actions if energy rises.
 Fock matrices will be formed incrementally for  20 cycles.

 Cycle   1  Pass 1  IDiag  1:
 FoFJK:  IHMeth= 1 ICntrl=       0 DoSepK=T KAlg= 0 I1Cent=           0 FoldK=F
 IRaf=         1 NMat=       1 IRICut=       1 DoRegI=T DoRafI=F ISym2E= 1 IDoP0=0 IntGTp=1.
 FoFCou: FMM=F IPFlag=           0 FMFlag=      100000 FMFlg1=           0
         NFxFlg=           0 DoJE=T BraDBF=F KetDBF=F FulRan=T
         wScrn=  0.000000 ICntrl=       500 IOpCl=  0 I1Cent=           0 NGrid=           0
         NMat0=    1 NMatS0=      1 NMatT0=    0 NMatD0=    1 NMtDS0=    0 NMtDT0=    0
 Petite list used in FoFCou.
 Inv3:  Mode=1 IEnd=     5638923.
 Iteration    1 A*A^-1 deviation from unit magnitude is 3.33D-15 for   1118.
 Iteration    1 A*A^-1 deviation from orthogonality  is 1.78D-15 for   1103    246.
 Iteration    1 A^-1*A deviation from unit magnitude is 2.78D-15 for    182.
 Iteration    1 A^-1*A deviation from orthogonality  is 3.86D-15 for    729    645.
 E= -453.939498933507    
 DIIS: error= 7.16D-02 at cycle   1 NSaved=   1.
 NSaved= 1 IEnMin= 1 EnMin= -453.939498933507     IErMin= 1 ErrMin= 7.16D-02
 ErrMax= 7.16D-02  0.00D+00 EMaxC= 1.00D-01 BMatC= 7.60D-01 BMatP= 7.60D-01
 IDIUse=3 WtCom= 2.84D-01 WtEn= 7.16D-01
 Coeff-Com:  0.100D+01
 Coeff-En:   0.100D+01
 Coeff:      0.100D+01
 Gap=     0.281 Goal=   None    Shift=    0.000
 GapD=    0.281 DampG=1.000 DampE=0.500 DampFc=0.5000 IDamp=-1.
 Damping current iteration by 5.00D-01
 RMSDP=9.93D-03 MaxDP=1.22D+00              OVMax= 1.32D-01

 Cycle   2  Pass 1  IDiag  1:
 RMSU=  4.02D-03    CP:  8.77D-01
 E= -454.003662783488     Delta-E=       -0.064163849982 Rises=F Damp=T
 DIIS: error= 3.42D-02 at cycle   2 NSaved=   2.
 NSaved= 2 IEnMin= 2 EnMin= -454.003662783488     IErMin= 2 ErrMin= 3.42D-02
 ErrMax= 3.42D-02  0.00D+00 EMaxC= 1.00D-01 BMatC= 1.55D-01 BMatP= 7.60D-01
 IDIUse=3 WtCom= 6.58D-01 WtEn= 3.42D-01
 Coeff-Com: -0.566D+00 0.157D+01
 Coeff-En:   0.000D+00 0.100D+01
 Coeff:     -0.372D+00 0.137D+01
 Gap=     0.303 Goal=   None    Shift=    0.000
 RMSDP=4.90D-03 MaxDP=5.73D-01 DE=-6.42D-02 OVMax= 1.11D-01

 Cycle   3  Pass 1  IDiag  1:
 RMSU=  2.75D-03    CP:  7.24D-01  1.45D+00
 E= -454.041202331903     Delta-E=       -0.037539548415 Rises=F Damp=F
 DIIS: error= 1.68D-02 at cycle   3 NSaved=   3.
 NSaved= 3 IEnMin= 3 EnMin= -454.041202331903     IErMin= 3 ErrMin= 1.68D-02
 ErrMax= 1.68D-02  0.00D+00 EMaxC= 1.00D-01 BMatC= 4.36D-02 BMatP= 1.55D-01
 IDIUse=3 WtCom= 8.32D-01 WtEn= 1.68D-01
 Coeff-Com: -0.338D+00 0.761D+00 0.577D+00
 Coeff-En:   0.000D+00 0.000D+00 0.100D+01
 Coeff:     -0.281D+00 0.633D+00 0.648D+00
 Gap=     0.283 Goal=   None    Shift=    0.000
 RMSDP=2.09D-03 MaxDP=1.71D-01 DE=-3.75D-02 OVMax= 6.31D-02

 Cycle   4  Pass 1  IDiag  1:
 RMSU=  8.60D-04    CP:  7.44D-01  1.80D+00  5.56D-01
 E= -454.069478506819     Delta-E=       -0.028276174916 Rises=F Damp=F
 DIIS: error= 7.74D-03 at cycle   4 NSaved=   4.
 NSaved= 4 IEnMin= 4 EnMin= -454.069478506819     IErMin= 4 ErrMin= 7.74D-03
 ErrMax= 7.74D-03  0.00D+00 EMaxC= 1.00D-01 BMatC= 8.45D-03 BMatP= 4.36D-02
 IDIUse=3 WtCom= 9.23D-01 WtEn= 7.74D-02
 Coeff-Com: -0.147D+00 0.317D+00 0.386D+00 0.443D+00
 Coeff-En:   0.000D+00 0.000D+00 0.126D+00 0.874D+00
 Coeff:     -0.135D+00 0.293D+00 0.366D+00 0.476D+00
 Gap=     0.284 Goal=   None    Shift=    0.000
 RMSDP=9.16D-04 MaxDP=6.91D-02 DE=-2.83D-02 OVMax= 1.84D-02

 Cycle   5  Pass 1  IDiag  1:
 RMSU=  2.66D-04    CP:  7.21D-01  1.75D+00  7.43D-01  5.36D-01
 E= -454.075117130953     Delta-E=       -0.005638624135 Rises=F Damp=F
 DIIS: error= 1.08D-03 at cycle   5 NSaved=   5.
 NSaved= 5 IEnMin= 5 EnMin= -454.075117130953     IErMin= 5 ErrMin= 1.08D-03
 ErrMax= 1.08D-03  0.00D+00 EMaxC= 1.00D-01 BMatC= 1.91D-04 BMatP= 8.45D-03
 IDIUse=3 WtCom= 9.89D-01 WtEn= 1.08D-02
 Coeff-Com: -0.431D-01 0.921D-01 0.135D+00 0.234D+00 0.582D+00
 Coeff-En:   0.000D+00 0.000D+00 0.000D+00 0.000D+00 0.100D+01
 Coeff:     -0.426D-01 0.911D-01 0.134D+00 0.231D+00 0.587D+00
 Gap=     0.283 Goal=   None    Shift=    0.000
 RMSDP=1.17D-04 MaxDP=7.31D-03 DE=-5.64D-03 OVMax= 4.28D-03

 Cycle   6  Pass 1  IDiag  1:
 RMSU=  6.03D-05    CP:  7.22D-01  1.76D+00  7.44D-01  6.26D-01  8.95D-01
 E= -454.075257419928     Delta-E=       -0.000140288975 Rises=F Damp=F
 DIIS: error= 3.24D-04 at cycle   6 NSaved=   6.
 NSaved= 6 IEnMin= 6 EnMin= -454.075257419928     IErMin= 6 ErrMin= 3.24D-04
 ErrMax= 3.24D-04  0.00D+00 EMaxC= 1.00D-01 BMatC= 1.65D-05 BMatP= 1.91D-04
 IDIUse=3 WtCom= 9.97D-01 WtEn= 3.24D-03
 Coeff-Com:  0.107D-01-0.237D-01-0.162D-01 0.151D-01 0.280D+00 0.734D+00
 Coeff-En:   0.000D+00 0.000D+00 0.000D+00 0.000D+00 0.000D+00 0.100D+01
 Coeff:      0.107D-01-0.236D-01-0.162D-01 0.150D-01 0.279D+00 0.735D+00
 Gap=     0.284 Goal=   None    Shift=    0.000
 RMSDP=1.00D-04 MaxDP=1.01D-02 DE=-1.40D-04 OVMax= 2.17D-03

 Cycle   7  Pass 1  IDiag  1:
 RMSU=  2.64D-05    CP:  7.19D-01  1.77D+00  7.56D-01  6.59D-01  1.05D+00
                    CP:  9.42D-01
 E= -454.075275790417     Delta-E=       -0.000018370489 Rises=F Damp=F
 DIIS: error= 1.38D-04 at cycle   7 NSaved=   7.
 NSaved= 7 IEnMin= 7 EnMin= -454.075275790417     IErMin= 7 ErrMin= 1.38D-04
 ErrMax= 1.38D-04  0.00D+00 EMaxC= 1.00D-01 BMatC= 2.91D-06 BMatP= 1.65D-05
 IDIUse=3 WtCom= 9.99D-01 WtEn= 1.38D-03
 Coeff-Com:  0.946D-02-0.204D-01-0.212D-01-0.209D-01 0.671D-01 0.358D+00
 Coeff-Com:  0.628D+00
 Coeff-En:   0.000D+00 0.000D+00 0.000D+00 0.000D+00 0.000D+00 0.000D+00
 Coeff-En:   0.100D+01
 Coeff:      0.944D-02-0.204D-01-0.212D-01-0.209D-01 0.670D-01 0.357D+00
 Coeff:      0.629D+00
 Gap=     0.284 Goal=   None    Shift=    0.000
 RMSDP=2.31D-05 MaxDP=1.89D-03 DE=-1.84D-05 OVMax= 8.90D-04

 Cycle   8  Pass 1  IDiag  1:
 RMSU=  1.10D-05    CP:  7.18D-01  1.77D+00  7.60D-01  6.56D-01  1.09D+00
                    CP:  1.01D+00  8.79D-01
 E= -454.075278933390     Delta-E=       -0.000003142972 Rises=F Damp=F
 DIIS: error= 3.96D-05 at cycle   8 NSaved=   8.
 NSaved= 8 IEnMin= 8 EnMin= -454.075278933390     IErMin= 8 ErrMin= 3.96D-05
 ErrMax= 3.96D-05  0.00D+00 EMaxC= 1.00D-01 BMatC= 4.40D-07 BMatP= 2.91D-06
 IDIUse=1 WtCom= 1.00D+00 WtEn= 0.00D+00
 Coeff-Com:  0.221D-02-0.465D-02-0.662D-02-0.158D-01-0.310D-01 0.337D-02
 Coeff-Com:  0.255D+00 0.798D+00
 Coeff:      0.221D-02-0.465D-02-0.662D-02-0.158D-01-0.310D-01 0.337D-02
 Coeff:      0.255D+00 0.798D+00
 Gap=     0.284 Goal=   None    Shift=    0.000
 RMSDP=1.70D-05 MaxDP=1.73D-03 DE=-3.14D-06 OVMax= 4.75D-04

 Cycle   9  Pass 1  IDiag  1:
 RMSU=  3.85D-06    CP:  7.18D-01  1.77D+00  7.62D-01  6.58D-01  1.12D+00
                    CP:  1.03D+00  1.06D+00  1.20D+00
 E= -454.075279593536     Delta-E=       -0.000000660146 Rises=F Damp=F
 DIIS: error= 2.71D-05 at cycle   9 NSaved=   9.
 NSaved= 9 IEnMin= 9 EnMin= -454.075279593536     IErMin= 9 ErrMin= 2.71D-05
 ErrMax= 2.71D-05  0.00D+00 EMaxC= 1.00D-01 BMatC= 4.42D-08 BMatP= 4.40D-07
 IDIUse=1 WtCom= 1.00D+00 WtEn= 0.00D+00
 Coeff-Com: -0.102D-02 0.222D-02 0.188D-02-0.192D-02-0.203D-01-0.558D-01
 Coeff-Com: -0.113D-02 0.277D+00 0.800D+00
 Coeff:     -0.102D-02 0.222D-02 0.188D-02-0.192D-02-0.203D-01-0.558D-01
 Coeff:     -0.113D-02 0.277D+00 0.800D+00
 Gap=     0.284 Goal=   None    Shift=    0.000
 RMSDP=3.96D-06 MaxDP=2.43D-04 DE=-6.60D-07 OVMax= 3.05D-04

 Cycle  10  Pass 1  IDiag  1:
 RMSU=  1.64D-06    CP:  7.18D-01  1.77D+00  7.63D-01  6.57D-01  1.12D+00
                    CP:  1.03D+00  1.10D+00  1.33D+00  1.14D+00
 E= -454.075279681148     Delta-E=       -0.000000087612 Rises=F Damp=F
 DIIS: error= 4.83D-06 at cycle  10 NSaved=  10.
 NSaved=10 IEnMin=10 EnMin= -454.075279681148     IErMin=10 ErrMin= 4.83D-06
 ErrMax= 4.83D-06  0.00D+00 EMaxC= 1.00D-01 BMatC= 7.94D-09 BMatP= 4.42D-08
 IDIUse=1 WtCom= 1.00D+00 WtEn= 0.00D+00
 Coeff-Com: -0.545D-03 0.117D-02 0.135D-02 0.124D-02-0.233D-02-0.189D-01
 Coeff-Com: -0.325D-01-0.340D-01 0.312D+00 0.772D+00
 Coeff:     -0.545D-03 0.117D-02 0.135D-02 0.124D-02-0.233D-02-0.189D-01
 Coeff:     -0.325D-01-0.340D-01 0.312D+00 0.772D+00
 Gap=     0.284 Goal=   None    Shift=    0.000
 RMSDP=1.30D-06 MaxDP=1.02D-04 DE=-8.76D-08 OVMax= 6.58D-05

 Cycle  11  Pass 1  IDiag  1:
 RMSU=  5.73D-07    CP:  7.18D-01  1.77D+00  7.63D-01  6.57D-01  1.12D+00
                    CP:  1.03D+00  1.12D+00  1.36D+00  1.27D+00  1.05D+00
 E= -454.075279692943     Delta-E=       -0.000000011795 Rises=F Damp=F
 DIIS: error= 2.56D-06 at cycle  11 NSaved=  11.
 NSaved=11 IEnMin=11 EnMin= -454.075279692943     IErMin=11 ErrMin= 2.56D-06
 ErrMax= 2.56D-06  0.00D+00 EMaxC= 1.00D-01 BMatC= 5.53D-10 BMatP= 7.94D-09
 IDIUse=1 WtCom= 1.00D+00 WtEn= 0.00D+00
 Coeff-Com: -0.418D-04 0.869D-04 0.196D-03 0.580D-03 0.155D-02-0.327D-03
 Coeff-Com: -0.109D-01-0.446D-01 0.451D-01 0.232D+00 0.776D+00
 Coeff:     -0.418D-04 0.869D-04 0.196D-03 0.580D-03 0.155D-02-0.327D-03
 Coeff:     -0.109D-01-0.446D-01 0.451D-01 0.232D+00 0.776D+00
 Gap=     0.284 Goal=   None    Shift=    0.000
 RMSDP=3.00D-07 MaxDP=1.58D-05 DE=-1.18D-08 OVMax= 3.05D-05

 Cycle  12  Pass 1  IDiag  1:
 RMSU=  1.39D-07    CP:  7.18D-01  1.77D+00  7.63D-01  6.57D-01  1.12D+00
                    CP:  1.03D+00  1.13D+00  1.36D+00  1.29D+00  1.12D+00
                    CP:  1.10D+00
 E= -454.075279693966     Delta-E=       -0.000000001023 Rises=F Damp=F
 DIIS: error= 8.15D-07 at cycle  12 NSaved=  12.
 NSaved=12 IEnMin=12 EnMin= -454.075279693966     IErMin=12 ErrMin= 8.15D-07
 ErrMax= 8.15D-07  0.00D+00 EMaxC= 1.00D-01 BMatC= 1.53D-10 BMatP= 5.53D-10
 IDIUse=1 WtCom= 1.00D+00 WtEn= 0.00D+00
 Coeff-Com:  0.491D-04-0.107D-03-0.758D-04 0.113D-03 0.103D-02 0.256D-02
 Coeff-Com:  0.657D-04-0.130D-01-0.256D-01-0.545D-01 0.333D+00 0.756D+00
 Coeff:      0.491D-04-0.107D-03-0.758D-04 0.113D-03 0.103D-02 0.256D-02
 Coeff:      0.657D-04-0.130D-01-0.256D-01-0.545D-01 0.333D+00 0.756D+00
 Gap=     0.284 Goal=   None    Shift=    0.000
 RMSDP=1.41D-07 MaxDP=5.92D-06 DE=-1.02D-09 OVMax= 8.26D-06

 Cycle  13  Pass 1  IDiag  1:
 RMSU=  6.25D-08    CP:  7.18D-01  1.77D+00  7.63D-01  6.57D-01  1.13D+00
                    CP:  1.03D+00  1.13D+00  1.37D+00  1.31D+00  1.14D+00
                    CP:  1.19D+00  1.09D+00
 E= -454.075279694176     Delta-E=       -0.000000000210 Rises=F Damp=F
 DIIS: error= 2.00D-07 at cycle  13 NSaved=  13.
 NSaved=13 IEnMin=13 EnMin= -454.075279694176     IErMin=13 ErrMin= 2.00D-07
 ErrMax= 2.00D-07  0.00D+00 EMaxC= 1.00D-01 BMatC= 5.76D-12 BMatP= 1.53D-10
 IDIUse=1 WtCom= 1.00D+00 WtEn= 0.00D+00
 Coeff-Com:  0.128D-04-0.271D-04-0.340D-04-0.484D-04-0.472D-05 0.430D-03
 Coeff-Com:  0.117D-02 0.289D-02-0.836D-02-0.411D-01-0.543D-02 0.816D-01
 Coeff-Com:  0.969D+00
 Coeff:      0.128D-04-0.271D-04-0.340D-04-0.484D-04-0.472D-05 0.430D-03
 Coeff:      0.117D-02 0.289D-02-0.836D-02-0.411D-01-0.543D-02 0.816D-01
 Coeff:      0.969D+00
 Gap=     0.284 Goal=   None    Shift=    0.000
 RMSDP=5.54D-08 MaxDP=2.51D-06 DE=-2.10D-10 OVMax= 3.19D-06

 Cycle  14  Pass 1  IDiag  1:
 RMSU=  2.19D-08    CP:  7.18D-01  1.77D+00  7.63D-01  6.57D-01  1.13D+00
                    CP:  1.03D+00  1.13D+00  1.36D+00  1.31D+00  1.14D+00
                    CP:  1.24D+00  1.15D+00  1.22D+00
 E= -454.075279694191     Delta-E=       -0.000000000014 Rises=F Damp=F
 DIIS: error= 8.33D-08 at cycle  14 NSaved=  14.
 NSaved=14 IEnMin=14 EnMin= -454.075279694191     IErMin=14 ErrMin= 8.33D-08
 ErrMax= 8.33D-08  0.00D+00 EMaxC= 1.00D-01 BMatC= 1.97D-12 BMatP= 5.76D-12
 IDIUse=1 WtCom= 1.00D+00 WtEn= 0.00D+00
 Coeff-Com:  0.157D-05-0.308D-05-0.918D-05-0.330D-04-0.101D-03-0.291D-04
 Coeff-Com:  0.548D-03 0.255D-02-0.982D-03-0.135D-01-0.307D-01-0.474D-01
 Coeff-Com:  0.453D+00 0.637D+00
 Coeff:      0.157D-05-0.308D-05-0.918D-05-0.330D-04-0.101D-03-0.291D-04
 Coeff:      0.548D-03 0.255D-02-0.982D-03-0.135D-01-0.307D-01-0.474D-01
 Coeff:      0.453D+00 0.637D+00
 Gap=     0.284 Goal=   None    Shift=    0.000
 RMSDP=1.53D-08 MaxDP=8.93D-07 DE=-1.45D-11 OVMax= 6.86D-07

 Cycle  15  Pass 1  IDiag  1:
 RMSU=  7.23D-09    CP:  7.18D-01  1.77D+00  7.63D-01  6.57D-01  1.13D+00
                    CP:  1.03D+00  1.13D+00  1.36D+00  1.31D+00  1.14D+00
                    CP:  1.24D+00  1.16D+00  1.27D+00  1.05D+00
 E= -454.075279694193     Delta-E=       -0.000000000002 Rises=F Damp=F
 DIIS: error= 2.02D-08 at cycle  15 NSaved=  15.
 NSaved=15 IEnMin=15 EnMin= -454.075279694193     IErMin=15 ErrMin= 2.02D-08
 ErrMax= 2.02D-08  0.00D+00 EMaxC= 1.00D-01 BMatC= 1.14D-13 BMatP= 1.97D-12
 IDIUse=1 WtCom= 1.00D+00 WtEn= 0.00D+00
 Coeff-Com: -0.133D-05 0.289D-05 0.220D-05-0.194D-05-0.331D-04-0.562D-04
 Coeff-Com:  0.103D-04 0.353D-03 0.774D-03 0.452D-03-0.742D-02-0.259D-01
 Coeff-Com:  0.757D-02 0.138D+00 0.886D+00
 Coeff:     -0.133D-05 0.289D-05 0.220D-05-0.194D-05-0.331D-04-0.562D-04
 Coeff:      0.103D-04 0.353D-03 0.774D-03 0.452D-03-0.742D-02-0.259D-01
 Coeff:      0.757D-02 0.138D+00 0.886D+00
 Gap=     0.284 Goal=   None    Shift=    0.000
 RMSDP=7.14D-09 MaxDP=3.92D-07 DE=-2.16D-12 OVMax= 2.41D-07

 Error on total polarization charges =  0.01242
 SCF Done:  E(RCAM-B3LYP) =  -454.075279694     A.U. after   15 cycles
            NFock= 15  Conv=0.71D-08     -V/T= 2.0038
 KE= 4.523602065922D+02 PE=-1.938138644844D+03 EE= 5.933040083530D+02
 Leave Link  502 at Thu Jan  5 10:30:30 2023, MaxMem=  1342177280 cpu:             540.4 elap:              10.7
 (Enter /shared/gaussian/g16.b01/AVX2/g16/l601.exe)
 Copying SCF densities to generalized density rwf, IOpCl= 0 IROHF=0.

 **********************************************************************

            Population analysis using the SCF Density.

 **********************************************************************

 Orbital symmetries:
       Occupied  (A') (A') (A') (A') (A') (A') (A') (A') (A') (A')
                 (A') (A') (A') (A') (A') (A') (A') (A') (A') (A')
                 (A") (A') (A') (A") (A') (A') (A") (A') (A") (A')
                 (A") (A') (A")
       Virtual   (A") (A') (A') (A') (A") (A") (A') (A') (A') (A")
                 (A') (A') (A") (A') (A") (A') (A') (A") (A') (A")
                 (A') (A') (A") (A') (A') (A') (A') (A') (A") (A')
                 (A") (A') (A') (A") (A') (A') (A') (A') (A') (A')
                 (A') (A") (A') (A') (A') (A') (A') (A') (A') (A')
                 (A') (A") (A') (A') (A') (A') (A') (A") (A") (A')
                 (A") (A') (A") (A') (A") (A') (A') (A') (A') (A')
                 (A') (A') (A') (A") (A') (A') (A") (A') (A') (A')
                 (A') (A") (A') (A') (A") (A') (A") (A') (A") (A")
                 (A') (A') (A") (A') (A') (A') (A") (A") (A') (A')
                 (A") (A') (A") (A') (A') (A') (A") (A") (A') (A')
                 (A") (A') (A") (A') (A') (A') (A') (A") (A') (A')
                 (A') (A') (A") (A') (A") (A') (A') (A') (A') (A')
                 (A") (A') (A") (A') (A") (A") (A') (A") (A') (A")
                 (A') (A') (A") (A') (A') (A') (A') (A') (A") (A")
                 (A") (A') (A') (A') (A") (A') (A") (A') (A') (A')
                 (A") (A') (A') (A') (A") (A') (A") (A') (A') (A')
                 (A') (A') (A') (A') (A") (A") (A') (A") (A') (A')
                 (A') (A') (A') (A') (A') (A") (A") (A') (A') (A')
                 (A') (A') (A') (A') (A') (A') (A') (A') (A') (A')
                 (A')
 The electronic state is 1-A'.
 Alpha  occ. eigenvalues --  -19.19061 -19.17530 -14.46526 -14.45441 -10.41268
 Alpha  occ. eigenvalues --  -10.38126 -10.34036 -10.28122 -10.25053  -1.18119
 Alpha  occ. eigenvalues --   -1.10881  -1.06753  -1.01110  -0.91755  -0.80332
 Alpha  occ. eigenvalues --   -0.77679  -0.74338  -0.65746  -0.65099  -0.60288
 Alpha  occ. eigenvalues --   -0.57050  -0.55504  -0.53206  -0.50448  -0.49646
 Alpha  occ. eigenvalues --   -0.47830  -0.46348  -0.45725  -0.43376  -0.38121
 Alpha  occ. eigenvalues --   -0.35630  -0.34112  -0.31140
 Alpha virt. eigenvalues --   -0.02775   0.02673   0.04169   0.04298   0.04342
 Alpha virt. eigenvalues --    0.06242   0.06836   0.07298   0.07951   0.09151
 Alpha virt. eigenvalues --    0.10023   0.10722   0.10736   0.12662   0.14040
 Alpha virt. eigenvalues --    0.14492   0.15257   0.15419   0.16099   0.17670
 Alpha virt. eigenvalues --    0.18061   0.18892   0.19401   0.20061   0.21273
 Alpha virt. eigenvalues --    0.21991   0.22998   0.24297   0.24476   0.24912
 Alpha virt. eigenvalues --    0.25285   0.25875   0.26205   0.28581   0.28649
 Alpha virt. eigenvalues --    0.28952   0.29600   0.30173   0.30602   0.32619
 Alpha virt. eigenvalues --    0.32799   0.33613   0.34121   0.34591   0.36326
 Alpha virt. eigenvalues --    0.38025   0.38899   0.41056   0.41430   0.43343
 Alpha virt. eigenvalues --    0.46573   0.47677   0.51270   0.52590   0.55443
 Alpha virt. eigenvalues --    0.58598   0.60328   0.60735   0.62464   0.62797
 Alpha virt. eigenvalues --    0.63354   0.65424   0.66806   0.69291   0.70670
 Alpha virt. eigenvalues --    0.71191   0.72096   0.73611   0.75591   0.77583
 Alpha virt. eigenvalues --    0.79310   0.83491   0.83930   0.86324   0.87116
 Alpha virt. eigenvalues --    0.88796   0.90556   0.91910   0.94052   0.96569
 Alpha virt. eigenvalues --    0.98343   1.01291   1.03610   1.08024   1.08381
 Alpha virt. eigenvalues --    1.13399   1.15639   1.17140   1.17542   1.19422
 Alpha virt. eigenvalues --    1.20785   1.23065   1.23621   1.24820   1.25746
 Alpha virt. eigenvalues --    1.28932   1.29321   1.34107   1.38390   1.40994
 Alpha virt. eigenvalues --    1.42498   1.49772   1.53189   1.55404   1.58355
 Alpha virt. eigenvalues --    1.59735   1.62000   1.63787   1.64337   1.68055
 Alpha virt. eigenvalues --    1.70580   1.71390   1.74093   1.76086   1.78879
 Alpha virt. eigenvalues --    1.81792   1.85424   1.86597   1.88086   1.88427
 Alpha virt. eigenvalues --    1.91165   1.93202   2.00360   2.04151   2.05818
 Alpha virt. eigenvalues --    2.07030   2.10110   2.16103   2.20377   2.21816
 Alpha virt. eigenvalues --    2.28265   2.29418   2.36177   2.39148   2.39290
 Alpha virt. eigenvalues --    2.47100   2.47907   2.52956   2.53298   2.58861
 Alpha virt. eigenvalues --    2.59743   2.61192   2.65357   2.67005   2.70434
 Alpha virt. eigenvalues --    2.72204   2.76053   2.81968   2.82246   2.83673
 Alpha virt. eigenvalues --    2.87705   2.88784   2.92968   2.94027   2.95260
 Alpha virt. eigenvalues --    2.99010   2.99337   3.00195   3.03591   3.05116
 Alpha virt. eigenvalues --    3.06252   3.16231   3.23299   3.32490   3.32749
 Alpha virt. eigenvalues --    3.38527   3.42484   3.46631   3.49402   3.62814
 Alpha virt. eigenvalues --    3.65482   3.66730   3.68306   3.77618   3.86474
 Alpha virt. eigenvalues --    3.88780   3.91050   3.92968   3.98993   4.07255
 Alpha virt. eigenvalues --    4.27577   4.37583   4.77052   4.90735   4.92411
 Alpha virt. eigenvalues --    5.09741   5.13143   5.21719   5.24234   5.39005
 Alpha virt. eigenvalues --    5.77635   5.85636  23.66961  23.91168  23.97219
 Alpha virt. eigenvalues --   24.01300  24.17879  35.62477  35.67169  50.01457
 Alpha virt. eigenvalues --   50.07921
          Condensed to atoms (all electrons):
               1          2          3          4          5          6
     1  N    6.927155   0.321015  -0.214227   0.167355   0.113285  -0.113760
     2  C    0.321015   4.926833   0.209387  -0.219918   0.329055  -0.381746
     3  N   -0.214227   0.209387   7.238610  -0.086383  -0.219012   0.337902
     4  C    0.167355  -0.219918  -0.086383   7.494037  -1.012508  -0.419623
     5  C    0.113285   0.329055  -0.219012  -1.012508   7.589488  -1.109990
     6  C   -0.113760  -0.381746   0.337902  -0.419623  -1.109990   7.627717
     7  O   -0.130253   0.415621  -0.110998   0.027334  -0.033734   0.048731
     8  O   -0.000048   0.025122  -0.120042   0.369368  -0.122704  -0.006291
     9  H    0.345747  -0.027876   0.009100  -0.008848   0.007941  -0.009383
    10  H    0.008456  -0.023727   0.339796  -0.018161   0.020985  -0.013306
    11  C   -0.007778  -0.032581   0.036165  -0.323948  -0.200953  -0.030421
    12  H   -0.036485   0.010069  -0.002446  -0.009135   0.031302   0.344444
    13  H   -0.001033   0.000941   0.000254  -0.020898  -0.144611   0.043145
    14  H    0.001038   0.001175  -0.000585   0.012609   0.030979  -0.023099
    15  H    0.001038   0.001175  -0.000585   0.012609   0.030979  -0.023099
               7          8          9         10         11         12
     1  N   -0.130253  -0.000048   0.345747   0.008456  -0.007778  -0.036485
     2  C    0.415621   0.025122  -0.027876  -0.023727  -0.032581   0.010069
     3  N   -0.110998  -0.120042   0.009100   0.339796   0.036165  -0.002446
     4  C    0.027334   0.369368  -0.008848  -0.018161  -0.323948  -0.009135
     5  C   -0.033734  -0.122704   0.007941   0.020985  -0.200953   0.031302
     6  C    0.048731  -0.006291  -0.009383  -0.013306  -0.030421   0.344444
     7  O    8.214717   0.001600   0.008296   0.005984   0.002813  -0.000137
     8  O    0.001600   8.318014  -0.000011   0.007423   0.049304  -0.000012
     9  H    0.008296  -0.000011   0.300198  -0.000061   0.000791  -0.002694
    10  H    0.005984   0.007423  -0.000061   0.295403   0.003068   0.000031
    11  C    0.002813   0.049304   0.000791   0.003068   5.875570   0.021970
    12  H   -0.000137  -0.000012  -0.002694   0.000031   0.021970   0.445222
    13  H   -0.000014   0.002307  -0.000021   0.000000   0.491259   0.001410
    14  H   -0.000013  -0.002645   0.000004   0.000007   0.346167   0.000114
    15  H   -0.000013  -0.002645   0.000004   0.000007   0.346167   0.000114
              13         14         15
     1  N   -0.001033   0.001038   0.001038
     2  C    0.000941   0.001175   0.001175
     3  N    0.000254  -0.000585  -0.000585
     4  C   -0.020898   0.012609   0.012609
     5  C   -0.144611   0.030979   0.030979
     6  C    0.043145  -0.023099  -0.023099
     7  O   -0.000014  -0.000013  -0.000013
     8  O    0.002307  -0.002645  -0.002645
     9  H   -0.000021   0.000004   0.000004
    10  H    0.000000   0.000007   0.000007
    11  C    0.491259   0.346167   0.346167
    12  H    0.001410   0.000114   0.000114
    13  H    0.518822  -0.023293  -0.023293
    14  H   -0.023293   0.516967  -0.030773
    15  H   -0.023293  -0.030773   0.516967
 Mulliken charges:
               1
     1  N   -0.381504
     2  C    0.445456
     3  N   -0.416937
     4  C    0.036112
     5  C    0.689498
     6  C   -0.271218
     7  O   -0.449934
     8  O   -0.518739
     9  H    0.376812
    10  H    0.374096
    11  C   -0.577594
    12  H    0.196232
    13  H    0.155024
    14  H    0.171348
    15  H    0.171348
 Sum of Mulliken charges =  -0.00000
 Mulliken charges with hydrogens summed into heavy atoms:
               1
     1  N   -0.004692
     2  C    0.445456
     3  N   -0.042841
     4  C    0.036112
     5  C    0.689498
     6  C   -0.074986
     7  O   -0.449934
     8  O   -0.518739
    11  C   -0.079874
 Electronic spatial extent (au):  <R**2>=           1139.3059
 Charge=             -0.0000 electrons
 Dipole moment (field-independent basis, Debye):
    X=             -5.1436    Y=             -5.5211    Z=              0.0000  Tot=              7.5458
 Quadrupole moment (field-independent basis, Debye-Ang):
   XX=            -53.5860   YY=            -61.0803   ZZ=            -53.0511
   XY=             10.0895   XZ=             -0.0000   YZ=              0.0000
 Traceless Quadrupole moment (field-independent basis, Debye-Ang):
   XX=              2.3198   YY=             -5.1745   ZZ=              2.8547
   XY=             10.0895   XZ=             -0.0000   YZ=              0.0000
 Octapole moment (field-independent basis, Debye-Ang**2):
  XXX=            -31.5730  YYY=            -64.2629  ZZZ=              0.0000  XYY=            -18.4824
  XXY=             23.2643  XXZ=              0.0000  XZZ=              2.8550  YZZ=             -0.2120
  YYZ=              0.0000  XYZ=             -0.0000
 Hexadecapole moment (field-independent basis, Debye-Ang**3):
 XXXX=           -800.4798 YYYY=           -684.6937 ZZZZ=            -60.3621 XXXY=            202.1970
 XXXZ=             -0.0000 YYYX=            150.0738 YYYZ=              0.0000 ZZZX=             -0.0000
 ZZZY=              0.0000 XXYY=           -257.1829 XXZZ=           -140.8305 YYZZ=           -118.1469
 XXYZ=              0.0000 YYXZ=             -0.0000 ZZXY=             37.8049
 N-N= 4.383991502045D+02 E-N=-1.938138646294D+03  KE= 4.523602065922D+02
 Symmetry A'   KE= 4.336887022664D+02
 Symmetry A"   KE= 1.867150432580D+01
 No NMR shielding tensors so no spin-rotation constants.
 Leave Link  601 at Thu Jan  5 10:30:30 2023, MaxMem=  1342177280 cpu:               9.0 elap:               0.2
 (Enter /shared/gaussian/g16.b01/AVX2/g16/l701.exe)
 ... and contract with generalized density number  0.
 Compute integral first derivatives.
 D1PCM: PCM CHGder 1st derivatives, ID1Alg=3 FixD1E=F DoIter=F DoCFld=F I1PDM=0.
 GePol: Maximum number of non-zero 1st derivatives   =     218
 Leave Link  701 at Thu Jan  5 10:30:30 2023, MaxMem=  1342177280 cpu:              24.8 elap:               0.5
 (Enter /shared/gaussian/g16.b01/AVX2/g16/l702.exe)
 L702 exits ... SP integral derivatives will be done elsewhere.
 Leave Link  702 at Thu Jan  5 10:30:30 2023, MaxMem=  1342177280 cpu:               1.6 elap:               0.0
 (Enter /shared/gaussian/g16.b01/AVX2/g16/l703.exe)
 Integral derivatives from FoFJK, PRISM(SPDF).
 Compute integral first derivatives, UseDBF=F ICtDFT=           0.
 Calling FoFJK, ICntrl=      2127 FMM=F ISym2X=1 I1Cent= 0 IOpClX= 0 NMat=1 NMatS=1 NMatT=0.
 FoFJK:  IHMeth= 1 ICntrl=    2127 DoSepK=T KAlg= 0 I1Cent=           0 FoldK=F
 IRaf=         1 NMat=       1 IRICut=       1 DoRegI=T DoRafI=F ISym2E= 1 IDoP0=0 IntGTp=1.
 FoFCou: FMM=F IPFlag=           0 FMFlag=      100000 FMFlg1=         800
         NFxFlg=           0 DoJE=F BraDBF=F KetDBF=F FulRan=T
         wScrn=  0.000000 ICntrl=      2527 IOpCl=  0 I1Cent=           0 NGrid=           0
         NMat0=    1 NMatS0=      1 NMatT0=    0 NMatD0=    1 NMtDS0=    0 NMtDT0=    0
 Petite list used in FoFCou.
 Leave Link  703 at Thu Jan  5 10:30:32 2023, MaxMem=  1342177280 cpu:              59.0 elap:               1.2
 (Enter /shared/gaussian/g16.b01/AVX2/g16/l716.exe)
 Dipole        =-2.02366226D+00-2.17217193D+00 2.22044605D-16
 ***** Axes restored to original set *****
 -------------------------------------------------------------------
 Center     Atomic                   Forces (Hartrees/Bohr)
 Number     Number              X              Y              Z
 -------------------------------------------------------------------
      1        7          -0.027555428    0.006543021   -0.000000000
      2        6           0.004360260    0.022116994   -0.000000000
      3        7          -0.032037185   -0.026788861    0.000000000
      4        6           0.071465434    0.121166157   -0.000000000
      5        6          -0.031571260   -0.039654946    0.000000000
      6        6           0.030611607    0.014164648   -0.000000000
      7        8           0.005957325   -0.009635485   -0.000000000
      8        8          -0.020387065   -0.086658077   -0.000000000
      9        1          -0.002727232   -0.003954565    0.000000000
     10        1          -0.000624575    0.006337165    0.000000000
     11        6          -0.000850886   -0.000470381    0.000000000
     12        1          -0.000075241   -0.002091056   -0.000000000
     13        1           0.000354629   -0.000787905    0.000000000
     14        1           0.001539809   -0.000143355   -0.000459279
     15        1           0.001539809   -0.000143355    0.000459279
 -------------------------------------------------------------------
 Cartesian Forces:  Max     0.121166157 RMS     0.027760208
 Leave Link  716 at Thu Jan  5 10:30:32 2023, MaxMem=  1342177280 cpu:               1.5 elap:               0.0
 (Enter /shared/gaussian/g16.b01/AVX2/g16/l103.exe)

 GradGradGradGradGradGradGradGradGradGradGradGradGradGradGradGradGradGrad
 Berny optimization.
 FormGI is forming the generalized inverse of G from B-inverse, IUseBI=4.
 Internal  Forces:  Max     0.088257730 RMS     0.013117922
 Search for a local minimum.
 Step number   1 out of a maximum of   79
 All quantities printed in internal units (Hartrees-Bohrs-Radians)
 RMS Force = .13118D-01 SwitMx=.10000D-02 MixMth= 1
 Mixed Optimization -- RFO/linear search
 Second derivative matrix not updated -- first step.
 ITU=  0
     Eigenvalues ---    0.00746   0.01641   0.01781   0.01803   0.01894
     Eigenvalues ---    0.01920   0.02014   0.02036   0.02121   0.02317
     Eigenvalues ---    0.07141   0.07238   0.16000   0.16000   0.16000
     Eigenvalues ---    0.16000   0.16000   0.16000   0.22365   0.23473
     Eigenvalues ---    0.24597   0.25000   0.25000   0.25000   0.32223
     Eigenvalues ---    0.34564   0.34564   0.34839   0.36189   0.41714
     Eigenvalues ---    0.44592   0.45654   0.46360   0.46508   0.47149
     Eigenvalues ---    0.49947   0.51311   0.61731   0.99850
 RFO step:  Lambda=-2.28849757D-02 EMin= 7.46467026D-03
 Linear search not attempted -- first point.
 Iteration  1 RMS(Cart)=  0.02533047 RMS(Int)=  0.00066901
 Iteration  2 RMS(Cart)=  0.00102416 RMS(Int)=  0.00008121
 Iteration  3 RMS(Cart)=  0.00000104 RMS(Int)=  0.00008120
 Iteration  4 RMS(Cart)=  0.00000000 RMS(Int)=  0.00008120
 ITry= 1 IFail=0 DXMaxC= 8.37D-02 DCOld= 1.00D+10 DXMaxT= 3.00D-01 DXLimC= 3.00D+00 Rises=F
 ClnCor:  largest displacement from symmetrization is 2.94D-10 for atom     7.
 Variable       Old X    -DE/DX   Delta X   Delta X   Delta X     New X
                                 (Linear)    (Quad)   (Total)
    R1        2.57683   0.00507   0.00000   0.00789   0.00783   2.58466
    R2        2.65327  -0.02781   0.00000  -0.06073  -0.06089   2.59238
    R3        1.90262   0.00380   0.00000   0.00779   0.00779   1.91041
    R4        2.62684  -0.00678   0.00000  -0.01329  -0.01317   2.61366
    R5        2.28699   0.00974   0.00000   0.00954   0.00954   2.29652
    R6        2.63825  -0.01570   0.00000  -0.03053  -0.03037   2.60788
    R7        1.90428   0.00264   0.00000   0.00542   0.00542   1.90970
    R8        2.62426   0.03298   0.00000   0.06768   0.06773   2.69199
    R9        2.49596  -0.08826   0.00000  -0.13786  -0.13786   2.35810
   R10        2.58934  -0.01966   0.00000  -0.03726  -0.03737   2.55196
   R11        2.83737  -0.00301   0.00000  -0.00872  -0.00872   2.82865
   R12        2.03786   0.00130   0.00000   0.00338   0.00338   2.04124
   R13        2.05937   0.00024   0.00000   0.00064   0.00064   2.06001
   R14        2.06388  -0.00059   0.00000  -0.00161  -0.00161   2.06227
   R15        2.06388  -0.00059   0.00000  -0.00161  -0.00161   2.06227
    A1        2.17717  -0.00144   0.00000  -0.01369  -0.01390   2.16328
    A2        2.00394   0.00350   0.00000   0.02207   0.02218   2.02612
    A3        2.10208  -0.00207   0.00000  -0.00839  -0.00828   2.09379
    A4        1.98788  -0.00222   0.00000  -0.01164  -0.01159   1.97629
    A5        2.17336  -0.00549   0.00000  -0.01838  -0.01841   2.15496
    A6        2.12194   0.00771   0.00000   0.03002   0.02999   2.15194
    A7        2.15084   0.01079   0.00000   0.04710   0.04736   2.19820
    A8        2.02531   0.00013   0.00000   0.00668   0.00655   2.03187
    A9        2.10703  -0.01092   0.00000  -0.05378  -0.05391   2.05312
   A10        2.10918  -0.01772   0.00000  -0.06031  -0.06009   2.04909
   A11        1.98073   0.02340   0.00000   0.08344   0.08333   2.06406
   A12        2.19328  -0.00568   0.00000  -0.02313  -0.02324   2.17004
   A13        2.04424   0.00136   0.00000   0.00597   0.00591   2.05015
   A14        2.09899  -0.00151   0.00000  -0.00602  -0.00599   2.09299
   A15        2.13996   0.00015   0.00000   0.00005   0.00008   2.14004
   A16        2.09706   0.00923   0.00000   0.03257   0.03231   2.12937
   A17        2.02964  -0.00629   0.00000  -0.02546  -0.02533   2.00431
   A18        2.15649  -0.00294   0.00000  -0.00711  -0.00698   2.14951
   A19        1.92943  -0.00029   0.00000   0.00017   0.00017   1.92960
   A20        1.94594  -0.00150   0.00000  -0.00910  -0.00914   1.93680
   A21        1.94594  -0.00150   0.00000  -0.00910  -0.00914   1.93680
   A22        1.88194   0.00135   0.00000   0.00905   0.00905   1.89099
   A23        1.88194   0.00135   0.00000   0.00905   0.00905   1.89099
   A24        1.87586   0.00080   0.00000   0.00109   0.00101   1.87688
    D1        0.00000   0.00000   0.00000   0.00000   0.00000   0.00000
    D2        3.14159   0.00000   0.00000   0.00000   0.00000   3.14159
    D3        3.14159   0.00000   0.00000   0.00000   0.00000   3.14159
    D4        0.00000   0.00000   0.00000   0.00000   0.00000   0.00000
    D5        0.00000   0.00000   0.00000   0.00000   0.00000   0.00000
    D6        3.14159  -0.00000   0.00000  -0.00000   0.00000   3.14159
    D7        3.14159   0.00000   0.00000   0.00000   0.00000   3.14159
    D8        0.00000   0.00000   0.00000   0.00000   0.00000   0.00000
    D9        0.00000  -0.00000   0.00000  -0.00000   0.00000   0.00000
   D10        3.14159  -0.00000   0.00000  -0.00000   0.00000   3.14159
   D11        3.14159  -0.00000   0.00000  -0.00000   0.00000   3.14159
   D12        0.00000  -0.00000   0.00000  -0.00000   0.00000   0.00000
   D13        0.00000  -0.00000   0.00000  -0.00000   0.00000   0.00000
   D14        3.14159   0.00000   0.00000   0.00000   0.00000   3.14159
   D15        3.14159  -0.00000   0.00000  -0.00000   0.00000   3.14159
   D16        0.00000  -0.00000   0.00000  -0.00000   0.00000   0.00000
   D17        0.00000   0.00000   0.00000   0.00000   0.00000   0.00000
   D18        3.14159   0.00000   0.00000   0.00000   0.00000   3.14159
   D19        3.14159   0.00000   0.00000   0.00000   0.00000   3.14159
   D20        0.00000   0.00000   0.00000   0.00000   0.00000   0.00000
   D21        0.00000  -0.00000   0.00000  -0.00000   0.00000   0.00000
   D22        3.14159  -0.00000   0.00000  -0.00000   0.00000   3.14159
   D23        3.14159  -0.00000   0.00000  -0.00000   0.00000   3.14159
   D24        0.00000  -0.00000   0.00000  -0.00000   0.00000   0.00000
   D25        3.14159   0.00000   0.00000  -0.00000   0.00000   3.14159
   D26       -1.04836   0.00052   0.00000   0.00553   0.00549  -1.04287
   D27        1.04836  -0.00052   0.00000  -0.00553  -0.00549   1.04287
   D28        0.00000   0.00000   0.00000   0.00000   0.00000   0.00000
   D29        2.09323   0.00052   0.00000   0.00553   0.00549   2.09872
   D30       -2.09323  -0.00052   0.00000  -0.00553  -0.00549  -2.09872
         Item               Value     Threshold  Converged?
 Maximum Force            0.088258     0.000450     NO 
 RMS     Force            0.013118     0.000300     NO 
 Maximum Displacement     0.083741     0.001800     NO 
 RMS     Displacement     0.025334     0.001200     NO 
 Predicted change in Energy=-1.202147D-02
 Lowest energy point so far.  Saving SCF results.
 GradGradGradGradGradGradGradGradGradGradGradGradGradGradGradGradGradGrad

 Leave Link  103 at Thu Jan  5 10:30:32 2023, MaxMem=  1342177280 cpu:               1.6 elap:               0.1
 (Enter /shared/gaussian/g16.b01/AVX2/g16/l202.exe)
                          Input orientation:                          
 ---------------------------------------------------------------------
 Center     Atomic      Atomic             Coordinates (Angstroms)
 Number     Number       Type             X           Y           Z
 ---------------------------------------------------------------------
      1          7           0        0.095920   -1.653042    0.000000
      2          6           0        1.308763   -1.020802    0.000000
      3          7           0        1.205077    0.358398    0.000000
      4          6           0        0.030277    1.082502    0.000000
      5          6           0       -1.191464    0.349927    0.000000
      6          6           0       -1.109427   -0.998020    0.000000
      7          8           0        2.371685   -1.609931    0.000000
      8          8           0        0.103987    2.328177    0.000000
      9          1           0        0.121406   -2.663666    0.000000
     10          1           0        2.073867    0.874588    0.000000
     11          6           0       -2.498960    1.078647    0.000000
     12          1           0       -1.976157   -1.642662    0.000000
     13          1           0       -3.330236    0.373437    0.000000
     14          1           0       -2.590212    1.717177    0.880288
     15          1           0       -2.590212    1.717177   -0.880288
 ---------------------------------------------------------------------
                    Distance matrix (angstroms):
                    1          2          3          4          5
     1  N    0.000000
     2  C    1.367741   0.000000
     3  N    2.296980   1.383092   0.000000
     4  C    2.736331   2.461385   1.380030   0.000000
     5  C    2.381016   2.851321   2.396556   1.424541   0.000000
     6  C    1.371829   2.418297   2.682685   2.372235   1.350441
     7  O    2.276173   1.215268   2.288076   3.568106   4.066579
     8  O    3.981227   3.559094   2.256642   1.247854   2.364671
     9  H    1.010946   2.027022   3.210485   3.747276   3.287152
    10  H    3.209546   2.043989   1.010568   2.054139   3.307212
    11  C    3.767695   4.348154   3.773414   2.529240   1.496857
    12  H    2.072103   3.343263   3.758257   3.384124   2.141531
    13  H    3.980598   4.843987   4.535338   3.434504   2.138901
    14  H    4.398703   4.844940   4.126186   2.836315   2.144942
    15  H    4.398703   4.844940   4.126186   2.836315   2.144942
                    6          7          8          9         10
     6  C    0.000000
     7  O    3.534484   0.000000
     8  O    3.540616   4.544353   0.000000
     9  H    2.071069   2.484776   4.991874   0.000000
    10  H    3.693240   2.502305   2.448131   4.041206   0.000000
    11  C    2.498670   5.563419   2.887328   4.568504   4.577378
    12  H    1.080178   4.347965   4.482696   2.332857   4.768568
    13  H    2.610151   6.037023   3.951569   4.597590   5.427290
    14  H    3.215575   6.038623   2.899472   5.226812   4.820632
    15  H    3.215575   6.038623   2.899472   5.226812   4.820632
                   11         12         13         14         15
    11  C    0.000000
    12  H    2.771074   0.000000
    13  H    1.090110   2.428618   0.000000
    14  H    1.091308   3.527108   1.768666   0.000000
    15  H    1.091308   3.527108   1.768666   1.760576   0.000000
 Stoichiometry    C5H6N2O2
 Framework group  CS[SG(C5H4N2O2),X(H2)]
 Deg. of freedom    26
 Full point group                 CS      NOp   2
 RotChk:  IX=0 Diff= 4.24D-02
 Largest Abelian subgroup         CS      NOp   2
 Largest concise Abelian subgroup CS      NOp   2
                         Standard orientation:                         
 ---------------------------------------------------------------------
 Center     Atomic      Atomic             Coordinates (Angstroms)
 Number     Number       Type             X           Y           Z
 ---------------------------------------------------------------------
      1          7           0        0.147619   -1.649555    0.000000
      2          6           0        1.340964   -0.981242    0.000000
      3          7           0        1.195979    0.394230    0.000000
      4          6           0       -0.000000    1.082791    0.000000
      5          6           0       -1.199231    0.313920    0.000000
      6          6           0       -1.076823   -1.030962    0.000000
      7          8           0        2.421068   -1.538241    0.000000
      8          8           0        0.036335    2.330116    0.000000
      9          1           0        0.203390   -2.658961    0.000000
     10          1           0        2.048904    0.936233    0.000000
     11          6           0       -2.527985    1.003117    0.000000
     12          1           0       -1.923838   -1.701297    0.000000
     13          1           0       -3.337746    0.273304    0.000000
     14          1           0       -2.638337    1.638624    0.880288
     15          1           0       -2.638337    1.638624   -0.880288
 ---------------------------------------------------------------------
 Rotational constants (GHZ):           3.2300680           1.4197744           0.9923126
 Leave Link  202 at Thu Jan  5 10:30:32 2023, MaxMem=  1342177280 cpu:               0.1 elap:               0.0
 (Enter /shared/gaussian/g16.b01/AVX2/g16/l301.exe)
 Standard basis: 6-311+G(d,p) (5D, 7F)
 Ernie: Thresh=  0.10000D-02 Tol=  0.10000D-05 Strict=F.
 There are   179 symmetry adapted cartesian basis functions of A'  symmetry.
 There are    64 symmetry adapted cartesian basis functions of A"  symmetry.
 There are   170 symmetry adapted basis functions of A'  symmetry.
 There are    64 symmetry adapted basis functions of A"  symmetry.
   234 basis functions,   372 primitive gaussians,   243 cartesian basis functions
    33 alpha electrons       33 beta electrons
       nuclear repulsion energy       441.3304388323 Hartrees.
 IExCor=20419 DFT=T Ex+Corr=CAM-B3LYP ExCW=0 ScaHFX=  1.000000
 ScaDFX=  1.000000  1.000000  1.000000  0.810000 ScalE2=  1.000000  1.000000
 IRadAn=      5 IRanWt=     -1 IRanGd=            0 ICorTp=0 IEmpDi=  4
 HFx  wShort=  0.000000 wLong=  0.330000 cFull=  0.190000 cShort=  0.000000 cLong=  0.460000
 DFx  wShort=  0.000000 wLong=  0.330000 cFull=  0.190000 cShort=  0.000000 cLong=  0.460000
 NAtoms=   15 NActive=   15 NUniq=   14 SFac= 1.15D+00 NAtFMM=   60 NAOKFM=F Big=F
 Integral buffers will be    131072 words long.
 Raffenetti 2 integral format.
 Two-electron integral symmetry is turned on.
 ------------------------------------------------------------------------------
 Polarizable Continuum Model (PCM)
 =================================
 Model                : PCM.
 Atomic radii         : UFF (Universal Force Field).
 Polarization charges : Total charges.
 Charge compensation  : None.
 Solution method      : On-the-fly selection.
 Cavity type          : Scaled VdW (van der Waals Surface) (Alpha=1.100).
 Cavity algorithm     : GePol (No added spheres)
                        Default sphere list used, NSphG=   15.
                        Lebedev-Laikov grids with approx.  5.0 points / Ang**2.
                        Smoothing algorithm: York/Karplus (Gamma=1.0000).
                        Polarization charges: spherical gaussians, with
                                              point-specific exponents (IZeta= 3).
                        Self-potential: point-specific (ISelfS= 7).
                        Self-field    : sphere-specific E.n sum rule (ISelfD= 2).
 1st derivatives      : Analytical E(r).r(x)/FMM algorithm (CHGder, D1EAlg=3).
                        Cavity 1st derivative terms included.
 Solvent              : Water, Eps=  78.355300 Eps(inf)=   1.777849
 ------------------------------------------------------------------------------
 Spheres list:
 ISph  on   Nord     Re0    Alpha      Xe            Ye            Ze
    1   N      1    1.8300  1.100      0.147619     -1.649555      0.000000
    2   C      2    1.9255  1.100      1.340964     -0.981242      0.000000
    3   N      3    1.8300  1.100      1.195979      0.394230      0.000000
    4   C      4    1.9255  1.100     -0.000000      1.082791      0.000000
    5   C      5    1.9255  1.100     -1.199231      0.313920      0.000000
    6   C      6    1.9255  1.100     -1.076823     -1.030962      0.000000
    7   O      7    1.7500  1.100      2.421068     -1.538241      0.000000
    8   O      8    1.7500  1.100      0.036335      2.330116      0.000000
    9   H      9    1.4430  1.100      0.203390     -2.658961      0.000000
   10   H     10    1.4430  1.100      2.048904      0.936233      0.000000
   11   C     11    1.9255  1.100     -2.527985      1.003117      0.000000
   12   H     12    1.4430  1.100     -1.923838     -1.701297      0.000000
   13   H     13    1.4430  1.100     -3.337746      0.273304      0.000000
   14   H     14    1.4430  1.100     -2.638337      1.638624      0.880288
   15   H     15    1.4430  1.100     -2.638337      1.638624     -0.880288
 ------------------------------------------------------------------------------
 GePol: Number of generator spheres                  =      15
 GePol: Total number of spheres                      =      15
 GePol: Number of exposed spheres                    =      15 (100.00%)
 GePol: Number of points                             =    1351
 GePol: Average weight of points                     =       0.13
 GePol: Minimum weight of points                     =   0.27D-07
 GePol: Maximum weight of points                     =    0.20577
 GePol: Number of points with low weight             =      68
 GePol: Fraction of low-weight points (<1% of avg)   =       5.03%
 GePol: Cavity surface area                          =    176.026 Ang**2
 GePol: Cavity volume                                =    170.333 Ang**3
 Leave Link  301 at Thu Jan  5 10:30:32 2023, MaxMem=  1342177280 cpu:               2.4 elap:               0.1
 (Enter /shared/gaussian/g16.b01/AVX2/g16/l302.exe)
 NPDir=0 NMtPBC=     1 NCelOv=     1 NCel=       1 NClECP=     1 NCelD=      1
         NCelK=      1 NCelE2=     1 NClLst=     1 CellRange=     0.0.
 One-electron integrals computed using PRISM.
 One-electron integral symmetry used in STVInt
 NBasis=   234 RedAO= T EigKep=  9.06D-06  NBF=   170    64
 NBsUse=   234 1.00D-06 EigRej= -1.00D+00 NBFU=   170    64
 Precomputing XC quadrature grid using
 IXCGrd= 4 IRadAn=           5 IRanWt=          -1 IRanGd=           0 AccXCQ= 0.00D+00.
 Generated NRdTot=       0 NPtTot=           0 NUsed=           0 NTot=          32
 NSgBfM=   243   243   243   243   243 MxSgAt=    15 MxSgA2=    15.
 Leave Link  302 at Thu Jan  5 10:30:32 2023, MaxMem=  1342177280 cpu:              10.3 elap:               0.2
 (Enter /shared/gaussian/g16.b01/AVX2/g16/l303.exe)
 DipDrv:  MaxL=1.
 Leave Link  303 at Thu Jan  5 10:30:32 2023, MaxMem=  1342177280 cpu:               1.3 elap:               0.0
 (Enter /shared/gaussian/g16.b01/AVX2/g16/l401.exe)
 Initial guess from the checkpoint file:  "thymine6311-opt.chk"
 B after Tr=     0.000000    0.000000    0.000000
         Rot=    0.999895    0.000000   -0.000000   -0.014458 Ang=  -1.66 deg.
 Guess basis will be translated and rotated to current coordinates.
 JPrj=2 DoOrth=T DoCkMO=T.
 Initial guess orbital symmetries:
       Occupied  (A') (A') (A') (A') (A') (A') (A') (A') (A') (A')
                 (A') (A') (A') (A') (A') (A') (A') (A') (A') (A')
                 (A") (A') (A') (A") (A') (A') (A") (A') (A") (A')
                 (A") (A') (A")
       Virtual   (A") (A') (A') (A') (A") (A") (A') (A') (A') (A")
                 (A') (A') (A") (A') (A") (A') (A') (A") (A') (A")
                 (A') (A') (A") (A') (A') (A') (A') (A') (A") (A')
                 (A") (A') (A') (A") (A') (A') (A') (A') (A') (A')
                 (A') (A") (A') (A') (A') (A') (A') (A') (A') (A')
                 (A') (A") (A') (A') (A') (A') (A') (A") (A") (A')
                 (A") (A') (A") (A') (A") (A') (A') (A') (A') (A')
                 (A') (A') (A') (A") (A') (A') (A") (A') (A') (A')
                 (A') (A") (A') (A') (A") (A') (A") (A') (A") (A")
                 (A') (A') (A") (A') (A') (A') (A") (A") (A') (A')
                 (A") (A') (A") (A') (A') (A') (A") (A") (A') (A')
                 (A") (A') (A") (A') (A') (A') (A') (A") (A') (A')
                 (A') (A') (A") (A') (A") (A') (A') (A') (A') (A')
                 (A") (A') (A") (A') (A") (A") (A') (A") (A') (A")
                 (A') (A') (A") (A') (A') (A') (A') (A') (A") (A")
                 (A") (A') (A') (A') (A") (A') (A") (A') (A') (A')
                 (A") (A') (A') (A') (A") (A') (A") (A') (A') (A')
                 (A') (A') (A') (A') (A") (A") (A') (A") (A') (A')
                 (A') (A') (A') (A') (A') (A") (A") (A') (A') (A')
                 (A') (A') (A') (A') (A') (A') (A') (A') (A') (A')
                 (A')
 The electronic state of the initial guess is 1-A'.
 Generating alternative initial guess.
 ExpMin= 4.38D-02 ExpMax= 8.59D+03 ExpMxC= 1.30D+03 IAcc=3 IRadAn=         5 AccDes= 0.00D+00
 Harris functional with IExCor=20419 and IRadAn=       5 diagonalized for initial guess.
 HarFok:  IExCor=20419 AccDes= 0.00D+00 IRadAn=         5 IDoV= 1 UseB2=F ITyADJ=14
 ICtDFT=  3500011 ScaDFX=  1.000000  1.000000  1.000000  1.000000
 FoFCou: FMM=F IPFlag=           0 FMFlag=      100000 FMFlg1=           0
         NFxFlg=           0 DoJE=T BraDBF=F KetDBF=T FulRan=T
         wScrn=  0.000000 ICntrl=       500 IOpCl=  0 I1Cent=   200000004 NGrid=           0
         NMat0=    1 NMatS0=      1 NMatT0=    0 NMatD0=    1 NMtDS0=    0 NMtDT0=    0
 Petite list used in FoFCou.
 Harris En= -437.695005938673    
 Leave Link  401 at Thu Jan  5 10:30:33 2023, MaxMem=  1342177280 cpu:              17.0 elap:               0.3
 (Enter /shared/gaussian/g16.b01/AVX2/g16/l502.exe)
 Integral symmetry usage will be decided dynamically.
 Closed shell SCF:
 Using DIIS extrapolation, IDIIS=  1040.
 NGot=  1342177280 LenX=  1342043586 LenY=  1341984096
 Requested convergence on RMS density matrix=1.00D-08 within 128 cycles.
 Requested convergence on MAX density matrix=1.00D-06.
 Requested convergence on             energy=1.00D-06.
 No special actions if energy rises.
 Fock matrices will be formed incrementally for  20 cycles.

 Cycle   1  Pass 1  IDiag  1:
 FoFJK:  IHMeth= 1 ICntrl=       0 DoSepK=T KAlg= 0 I1Cent=           0 FoldK=F
 IRaf=         1 NMat=       1 IRICut=       1 DoRegI=T DoRafI=F ISym2E= 1 IDoP0=0 IntGTp=1.
 FoFCou: FMM=F IPFlag=           0 FMFlag=      100000 FMFlg1=           0
         NFxFlg=           0 DoJE=T BraDBF=F KetDBF=F FulRan=T
         wScrn=  0.000000 ICntrl=       500 IOpCl=  0 I1Cent=           0 NGrid=           0
         NMat0=    1 NMatS0=      1 NMatT0=    0 NMatD0=    1 NMtDS0=    0 NMtDT0=    0
 Petite list used in FoFCou.
 Inv3:  Mode=1 IEnd=     5475603.
 Iteration    1 A*A^-1 deviation from unit magnitude is 3.11D-15 for    749.
 Iteration    1 A*A^-1 deviation from orthogonality  is 1.80D-15 for    890     78.
 Iteration    1 A^-1*A deviation from unit magnitude is 3.33D-15 for    749.
 Iteration    1 A^-1*A deviation from orthogonality  is 1.59D-15 for    968    348.
 E= -454.082727201279    
 DIIS: error= 4.49D-03 at cycle   1 NSaved=   1.
 NSaved= 1 IEnMin= 1 EnMin= -454.082727201279     IErMin= 1 ErrMin= 4.49D-03
 ErrMax= 4.49D-03  0.00D+00 EMaxC= 1.00D-01 BMatC= 7.10D-03 BMatP= 7.10D-03
 IDIUse=3 WtCom= 9.55D-01 WtEn= 4.49D-02
 Coeff-Com:  0.100D+01
 Coeff-En:   0.100D+01
 Coeff:      0.100D+01
 Gap=     0.298 Goal=   None    Shift=    0.000
 GapD=    0.298 DampG=1.000 DampE=1.000 DampFc=1.0000 IDamp=-1.
 RMSDP=1.84D-03 MaxDP=1.43D-01              OVMax= 2.39D-02

 Cycle   2  Pass 1  IDiag  1:
 RMSU=  1.83D-03    CP:  9.87D-01
 E= -454.089610115519     Delta-E=       -0.006882914241 Rises=F Damp=F
 DIIS: error= 1.37D-03 at cycle   2 NSaved=   2.
 NSaved= 2 IEnMin= 2 EnMin= -454.089610115519     IErMin= 2 ErrMin= 1.37D-03
 ErrMax= 1.37D-03  0.00D+00 EMaxC= 1.00D-01 BMatC= 6.10D-04 BMatP= 7.10D-03
 IDIUse=3 WtCom= 9.86D-01 WtEn= 1.37D-02
 Coeff-Com:  0.799D-01 0.920D+00
 Coeff-En:   0.000D+00 0.100D+01
 Coeff:      0.788D-01 0.921D+00
 Gap=     0.298 Goal=   None    Shift=    0.000
[...]
 ! D14   D(2,3,4,8)            180.0            -DE/DX =    0.0                 !
 ! D15   D(10,3,4,5)           180.0            -DE/DX =    0.0                 !
 ! D16   D(10,3,4,8)             0.0            -DE/DX =    0.0                 !
 ! D17   D(3,4,5,6)              0.0            -DE/DX =    0.0                 !
 ! D18   D(3,4,5,11)           180.0            -DE/DX =    0.0                 !
 ! D19   D(8,4,5,6)            180.0            -DE/DX =    0.0                 !
 ! D20   D(8,4,5,11)             0.0            -DE/DX =    0.0                 !
 ! D21   D(4,5,6,1)              0.0            -DE/DX =    0.0                 !
 ! D22   D(4,5,6,12)           180.0            -DE/DX =    0.0                 !
 ! D23   D(11,5,6,1)           180.0            -DE/DX =    0.0                 !
 ! D24   D(11,5,6,12)            0.0            -DE/DX =    0.0                 !
 ! D25   D(4,5,11,13)          180.0            -DE/DX =    0.0                 !
 ! D26   D(4,5,11,14)          -59.531          -DE/DX =    0.0                 !
 ! D27   D(4,5,11,15)           59.531          -DE/DX =    0.0                 !
 ! D28   D(6,5,11,13)            0.0            -DE/DX =    0.0                 !
 ! D29   D(6,5,11,14)          120.469          -DE/DX =    0.0                 !
 ! D30   D(6,5,11,15)         -120.469          -DE/DX =    0.0                 !
 --------------------------------------------------------------------------------
 Lowest energy point so far.  Saving SCF results.
 Largest change from initial coordinates is atom   13       0.107 Angstoms.
 GradGradGradGradGradGradGradGradGradGradGradGradGradGradGradGradGradGrad

 Leave Link  103 at Thu Jan  5 10:31:23 2023, MaxMem=  1342177280 cpu:               1.1 elap:               0.0
 (Enter /shared/gaussian/g16.b01/AVX2/g16/l202.exe)
                          Input orientation:                          
 ---------------------------------------------------------------------
 Center     Atomic      Atomic             Coordinates (Angstroms)
 Number     Number       Type             X           Y           Z
 ---------------------------------------------------------------------
      1          7           0        0.099453   -1.660147    0.000000
      2          6           0        1.309958   -1.020871    0.000000
      3          7           0        1.202988    0.351028    0.000000
      4          6           0        0.034731    1.108615    0.000000
      5          6           0       -1.201672    0.339965    0.000000
      6          6           0       -1.105626   -1.000331    0.000000
      7          8           0        2.379112   -1.603605    0.000000
      8          8           0        0.101860    2.327534    0.000000
      9          1           0        0.125486   -2.669565    0.000000
     10          1           0        2.076288    0.863548    0.000000
     11          6           0       -2.503512    1.077500    0.000000
     12          1           0       -1.975882   -1.642770    0.000000
     13          1           0       -3.341845    0.381035    0.000000
     14          1           0       -2.588512    1.719985    0.878966
     15          1           0       -2.588512    1.719985   -0.878966
 ---------------------------------------------------------------------
                    Distance matrix (angstroms):
                    1          2          3          4          5
     1  N    0.000000
     2  C    1.368940   0.000000
     3  N    2.294040   1.376063   0.000000
     4  C    2.769519   2.482119   1.392395   0.000000
     5  C    2.386080   2.856599   2.404686   1.455855   0.000000
     6  C    1.373890   2.415671   2.675046   2.397513   1.343733
     7  O    2.280361   1.217650   2.281197   3.585006   4.074246
     8  O    3.987682   3.559679   2.262533   1.220766   2.376894
     9  H    1.009753   2.030065   3.207023   3.779271   3.289167
    10  H    3.205763   2.034281   1.012585   2.056213   3.319512
    11  C    3.777584   4.352667   3.777024   2.538434   1.496244
    12  H    2.075408   3.344174   3.752392   3.407739   2.128530
    13  H    4.001120   4.858458   4.544933   3.454076   2.140567
    14  H    4.407157   4.845920   4.125785   2.833330   2.144846
    15  H    4.407157   4.845920   4.125785   2.833330   2.144846
                    6          7          8          9         10
     6  C    0.000000
     7  O    3.536572   0.000000
     8  O    3.540156   4.543097   0.000000
     9  H    2.074122   2.493011   4.997155   0.000000
    10  H    3.687631   2.485668   2.457971   4.035903   0.000000
    11  C    2.504289   5.570309   2.889732   4.577349   4.584795
    12  H    1.081699   4.355170   4.481107   2.338815   4.764631
    13  H    2.628469   6.055424   3.955751   4.618284   5.439576
    14  H    3.220504   6.041203   2.894789   5.235124   4.823529
    15  H    3.220504   6.041203   2.894789   5.235124   4.823529
                   11         12         13         14         15
    11  C    0.000000
    12  H    2.770967   0.000000
    13  H    1.089892   2.441647   0.000000
    14  H    1.092059   3.529308   1.769994   0.000000
    15  H    1.092059   3.529308   1.769994   1.757932   0.000000
 Stoichiometry    C5H6N2O2
 Framework group  CS[SG(C5H4N2O2),X(H2)]
 Deg. of freedom    26
 Full point group                 CS      NOp   2
 RotChk:  IX=0 Diff= 2.26D-16
 Largest Abelian subgroup         CS      NOp   2
 Largest concise Abelian subgroup CS      NOp   2
                         Standard orientation:                         
 ---------------------------------------------------------------------
 Center     Atomic      Atomic             Coordinates (Angstroms)
 Number     Number       Type             X           Y           Z
 ---------------------------------------------------------------------
      1          7           0        0.156138   -1.656335    0.000000
      2          6           0        1.344867   -0.977425    0.000000
      3          7           0        1.192643    0.390193    0.000000
      4          6           0       -0.000000    1.108780    0.000000
      5          6           0       -1.210340    0.299711    0.000000
      6          6           0       -1.070078   -1.036681    0.000000
      7          8           0        2.432686   -1.524527    0.000000
      8          8           0        0.026832    2.329250    0.000000
      9          1           0        0.215497   -2.664342    0.000000
     10          1           0        2.048538    0.931278    0.000000
     11          6           0       -2.535831    0.993844    0.000000
     12          1           0       -1.918639   -1.707514    0.000000
     13          1           0       -3.350702    0.270070    0.000000
     14          1           0       -2.642006    1.633171    0.878966
     15          1           0       -2.642006    1.633171   -0.878966
 ---------------------------------------------------------------------
 Rotational constants (GHZ):           3.2187238           1.4155564           0.9891633
 Leave Link  202 at Thu Jan  5 10:31:23 2023, MaxMem=  1342177280 cpu:               0.1 elap:               0.0
 (Enter /shared/gaussian/g16.b01/AVX2/g16/l601.exe)
 Copying SCF densities to generalized density rwf, IOpCl= 0 IROHF=0.

 **********************************************************************

            Population analysis using the SCF Density.

 **********************************************************************

 Orbital symmetries:
       Occupied  (A') (A') (A') (A') (A') (A') (A') (A') (A') (A')
                 (A') (A') (A') (A') (A') (A') (A') (A') (A') (A')
                 (A") (A') (A') (A') (A") (A") (A') (A') (A") (A')
                 (A") (A') (A")
       Virtual   (A") (A') (A') (A') (A") (A") (A') (A') (A') (A")
                 (A') (A") (A') (A') (A") (A') (A') (A') (A") (A")
                 (A') (A') (A") (A') (A') (A') (A') (A') (A") (A')
                 (A") (A') (A') (A") (A') (A') (A') (A') (A') (A')
                 (A') (A") (A') (A') (A') (A') (A') (A') (A') (A')
                 (A') (A") (A') (A') (A') (A') (A') (A") (A") (A")
                 (A') (A') (A") (A') (A') (A") (A') (A') (A') (A')
                 (A') (A') (A') (A") (A') (A') (A") (A') (A') (A')
                 (A') (A") (A') (A") (A') (A') (A") (A') (A") (A")
                 (A') (A') (A') (A") (A') (A') (A") (A") (A') (A')
                 (A") (A') (A") (A') (A') (A') (A") (A') (A") (A')
                 (A") (A') (A") (A') (A') (A') (A') (A") (A') (A')
                 (A') (A') (A") (A') (A") (A') (A') (A') (A') (A')
                 (A") (A') (A") (A") (A') (A') (A") (A') (A") (A')
                 (A") (A') (A") (A') (A') (A') (A') (A") (A') (A")
                 (A") (A') (A') (A") (A') (A') (A") (A') (A') (A')
                 (A") (A') (A') (A') (A") (A") (A') (A') (A') (A')
                 (A') (A') (A') (A') (A") (A") (A') (A") (A') (A')
                 (A') (A') (A') (A') (A') (A") (A") (A') (A') (A')
                 (A') (A') (A') (A') (A') (A') (A') (A') (A') (A')
                 (A')
 The electronic state is 1-A'.
 Alpha  occ. eigenvalues --  -19.18790 -19.18685 -14.45672 -14.44948 -10.41090
 Alpha  occ. eigenvalues --  -10.37830 -10.32119 -10.27093 -10.24652  -1.17831
 Alpha  occ. eigenvalues --   -1.14564  -1.07324  -1.02133  -0.90732  -0.79948
 Alpha  occ. eigenvalues --   -0.76507  -0.74914  -0.64981  -0.64841  -0.59539
 Alpha  occ. eigenvalues --   -0.57030  -0.55435  -0.52787  -0.50913  -0.50503
 Alpha  occ. eigenvalues --   -0.47641  -0.47576  -0.45674  -0.43174  -0.38003
 Alpha  occ. eigenvalues --   -0.36564  -0.35195  -0.30564
 Alpha virt. eigenvalues --   -0.00420   0.02719   0.04155   0.04360   0.04443
 Alpha virt. eigenvalues --    0.06222   0.06830   0.07348   0.07936   0.09219
 Alpha virt. eigenvalues --    0.10039   0.10583   0.10790   0.12680   0.14052
 Alpha virt. eigenvalues --    0.14642   0.15335   0.16060   0.16188   0.17757
 Alpha virt. eigenvalues --    0.18021   0.19067   0.19365   0.20426   0.22029
 Alpha virt. eigenvalues --    0.22141   0.23673   0.24446   0.24486   0.25143
 Alpha virt. eigenvalues --    0.25387   0.26005   0.26655   0.28700   0.28939
 Alpha virt. eigenvalues --    0.29028   0.29884   0.30793   0.30893   0.32889
 Alpha virt. eigenvalues --    0.33109   0.33613   0.34141   0.34957   0.36213
 Alpha virt. eigenvalues --    0.38248   0.38965   0.41757   0.42960   0.43635
 Alpha virt. eigenvalues --    0.46925   0.47579   0.52427   0.54485   0.56218
 Alpha virt. eigenvalues --    0.58837   0.60418   0.61285   0.63139   0.63838
 Alpha virt. eigenvalues --    0.63952   0.66259   0.66868   0.69282   0.70758
 Alpha virt. eigenvalues --    0.70885   0.72793   0.74724   0.76599   0.78373
 Alpha virt. eigenvalues --    0.79238   0.83430   0.84805   0.86714   0.87244
 Alpha virt. eigenvalues --    0.90252   0.90789   0.92781   0.93048   0.97114
 Alpha virt. eigenvalues --    0.98777   1.02373   1.03459   1.08670   1.09217
 Alpha virt. eigenvalues --    1.14171   1.16045   1.17961   1.18231   1.19553
 Alpha virt. eigenvalues --    1.21142   1.23265   1.24283   1.24310   1.24623
 Alpha virt. eigenvalues --    1.28427   1.28925   1.33450   1.37821   1.40422
 Alpha virt. eigenvalues --    1.43613   1.49221   1.53138   1.56058   1.59487
 Alpha virt. eigenvalues --    1.61017   1.62406   1.64300   1.64610   1.68494
 Alpha virt. eigenvalues --    1.71342   1.72521   1.73979   1.77790   1.80024
 Alpha virt. eigenvalues --    1.83112   1.86117   1.87046   1.89026   1.89842
 Alpha virt. eigenvalues --    1.92308   1.94278   1.99828   2.03736   2.05469
 Alpha virt. eigenvalues --    2.06592   2.09901   2.16488   2.21027   2.22054
 Alpha virt. eigenvalues --    2.29415   2.31953   2.36478   2.39208   2.39759
 Alpha virt. eigenvalues --    2.47541   2.48060   2.53528   2.53690   2.59126
 Alpha virt. eigenvalues --    2.59196   2.62994   2.65267   2.66766   2.71209
 Alpha virt. eigenvalues --    2.72376   2.76480   2.83034   2.83595   2.85692
 Alpha virt. eigenvalues --    2.88123   2.92330   2.94360   2.95172   2.96617
 Alpha virt. eigenvalues --    2.98372   3.00473   3.00487   3.04890   3.06443
 Alpha virt. eigenvalues --    3.06595   3.18914   3.22969   3.36934   3.41796
 Alpha virt. eigenvalues --    3.42551   3.45988   3.49858   3.54241   3.63804
 Alpha virt. eigenvalues --    3.66250   3.69399   3.71245   3.78535   3.86710
 Alpha virt. eigenvalues --    3.89413   3.92252   3.93944   3.98271   4.10013
 Alpha virt. eigenvalues --    4.28619   4.38072   4.78650   4.88705   4.94297
 Alpha virt. eigenvalues --    5.10035   5.12794   5.21654   5.26154   5.42516
 Alpha virt. eigenvalues --    5.81913   5.86633  23.73871  23.90517  23.95045
 Alpha virt. eigenvalues --   24.02493  24.24703  35.63082  35.68760  50.04621
 Alpha virt. eigenvalues --   50.09765
          Condensed to atoms (all electrons):
               1          2          3          4          5          6
     1  N    6.933428   0.330891  -0.217214   0.133446   0.169752  -0.150805
     2  C    0.330891   4.912476   0.214073  -0.218028   0.324868  -0.390238
     3  N   -0.217214   0.214073   7.259188  -0.059292  -0.290049   0.404913
     4  C    0.133446  -0.218028  -0.059292   6.732899  -0.422314  -0.403697
     5  C    0.169752   0.324868  -0.290049  -0.422314   7.331099  -1.329341
     6  C   -0.150805  -0.390238   0.404913  -0.403697  -1.329341   7.829705
     7  O   -0.132609   0.414849  -0.107695   0.020787  -0.035034   0.055041
     8  O   -0.001276   0.027627  -0.109797   0.357306  -0.114264  -0.011968
     9  H    0.349709  -0.029752   0.009284  -0.005165   0.003772  -0.010032
    10  H    0.009266  -0.021830   0.332742  -0.015093   0.024385  -0.017665
    11  C    0.000275  -0.028818   0.008407  -0.258223  -0.202672  -0.024953
    12  H   -0.041518   0.011178  -0.003849  -0.004526   0.021162   0.354771
    13  H   -0.000774   0.000995  -0.000347  -0.016937  -0.142442   0.041637
    14  H    0.001093   0.001232  -0.000255   0.011039   0.028708  -0.025029
    15  H    0.001093   0.001232  -0.000255   0.011039   0.028708  -0.025029
               7          8          9         10         11         12
     1  N   -0.132609  -0.001276   0.349709   0.009266   0.000275  -0.041518
     2  C    0.414849   0.027627  -0.029752  -0.021830  -0.028818   0.011178
     3  N   -0.107695  -0.109797   0.009284   0.332742   0.008407  -0.003849
     4  C    0.020787   0.357306  -0.005165  -0.015093  -0.258223  -0.004526
     5  C   -0.035034  -0.114264   0.003772   0.024385  -0.202672   0.021162
     6  C    0.055041  -0.011968  -0.010032  -0.017665  -0.024953   0.354771
     7  O    8.227662   0.001417   0.007216   0.006320   0.003594  -0.000175
     8  O    0.001417   8.230973  -0.000019   0.008129   0.048575  -0.000067
     9  H    0.007216  -0.000019   0.304816  -0.000039   0.000590  -0.003489
    10  H    0.006320   0.008129  -0.000039   0.302786   0.003723   0.000047
    11  C    0.003594   0.048575   0.000590   0.003723   5.822103   0.021036
    12  H   -0.000175  -0.000067  -0.003489   0.000047   0.021036   0.461493
    13  H   -0.000015   0.002081  -0.000013   0.000002   0.487920   0.001608
    14  H   -0.000017  -0.002384   0.000004   0.000006   0.349745   0.000131
    15  H   -0.000017  -0.002384   0.000004   0.000006   0.349745   0.000131
              13         14         15
     1  N   -0.000774   0.001093   0.001093
     2  C    0.000995   0.001232   0.001232
     3  N   -0.000347  -0.000255  -0.000255
     4  C   -0.016937   0.011039   0.011039
     5  C   -0.142442   0.028708   0.028708
     6  C    0.041637  -0.025029  -0.025029
     7  O   -0.000015  -0.000017  -0.000017
     8  O    0.002081  -0.002384  -0.002384
     9  H   -0.000013   0.000004   0.000004
    10  H    0.000002   0.000006   0.000006
    11  C    0.487920   0.349745   0.349745
    12  H    0.001608   0.000131   0.000131
    13  H    0.518042  -0.022594  -0.022594
    14  H   -0.022594   0.525549  -0.033603
    15  H   -0.022594  -0.033603   0.525549
 Mulliken charges:
               1
     1  N   -0.384757
     2  C    0.449245
     3  N   -0.439854
     4  C    0.136757
     5  C    0.603661
     6  C   -0.297309
     7  O   -0.461325
     8  O   -0.433949
     9  H    0.373114
    10  H    0.367216
    11  C   -0.581047
    12  H    0.182067
    13  H    0.153432
    14  H    0.166374
    15  H    0.166374
 Sum of Mulliken charges =  -0.00000
 Mulliken charges with hydrogens summed into heavy atoms:
               1
     1  N   -0.011643
     2  C    0.449245
     3  N   -0.072638
     4  C    0.136757
     5  C    0.603661
     6  C   -0.115242
     7  O   -0.461325
     8  O   -0.433949
    11  C   -0.094867
 Electronic spatial extent (au):  <R**2>=           1130.4826
 Charge=             -0.0000 electrons
 Dipole moment (field-independent basis, Debye):
    X=             -4.5901    Y=             -4.1949    Z=             -0.0000  Tot=              6.2182
 Quadrupole moment (field-independent basis, Debye-Ang):
   XX=            -55.8320   YY=            -58.2547   ZZ=            -52.8794
   XY=             10.7229   XZ=              0.0000   YZ=             -0.0000
 Traceless Quadrupole moment (field-independent basis, Debye-Ang):
   XX=             -0.1767   YY=             -2.5993   ZZ=              2.7760
   XY=             10.7229   XZ=              0.0000   YZ=             -0.0000
 Octapole moment (field-independent basis, Debye-Ang**2):
  XXX=            -32.2188  YYY=            -55.5596  ZZZ=             -0.0000  XYY=            -14.4117
  XXY=             24.6757  XXZ=             -0.0000  XZZ=              3.0957  YZZ=              1.1387
  YYZ=             -0.0000  XYZ=              0.0000
 Hexadecapole moment (field-independent basis, Debye-Ang**3):
 XXXX=           -834.7146 YYYY=           -640.9182 ZZZZ=            -60.0464 XXXY=            203.2147
 XXXZ=              0.0000 YYYX=            150.2595 YYYZ=             -0.0000 ZZZX=              0.0000
 ZZZY=              0.0000 XXYY=           -255.0915 XXZZ=           -143.2891 YYZZ=           -112.8919
 XXYZ=             -0.0000 YYXZ=              0.0000 ZZXY=             37.5587
 N-N= 4.408985626107D+02 E-N=-1.943420289998D+03  KE= 4.526506052298D+02
 Symmetry A'   KE= 4.339636469527D+02
 Symmetry A"   KE= 1.868695827717D+01
 No NMR shielding tensors so no spin-rotation constants.
 Leave Link  601 at Thu Jan  5 10:31:23 2023, MaxMem=  1342177280 cpu:               6.6 elap:               0.2
 (Enter /shared/gaussian/g16.b01/AVX2/g16/l9999.exe)
 1\1\GINC-BAKU1\FOpt\RCAM-B3LYP\6-311+G(d,p)\C5H6N2O2\ROOT\05-Jan-2023\
 0\\#p opt cam-b3lyp/6-311+G(d,p) scrf=(solvent=water,pcm) symm=loose\\
 Thymine solvated\\0,1\N,0.0994528586,-1.6601474908,0.\C,1.3099575089,-
 1.0208711936,0.\N,1.2029883532,0.3510282338,0.\C,0.0347310849,1.108615
 4535,0.\C,-1.2016718028,0.3399652502,0.\C,-1.1056264225,-1.000330578,0
 .\O,2.3791122866,-1.6036053208,0.\O,0.1018604788,2.327533963,0.\H,0.12
 54859448,-2.6695652807,0.\H,2.0762880743,0.8635477838,0.\C,-2.50351216
 42,1.0774995504,0.\H,-1.9758820107,-1.64276955,0.\H,-3.3418452536,0.38
 10354622,0.\H,-2.5885124681,1.7199848584,0.8789660052\H,-2.5885124681,
 1.7199848584,-0.8789660052\\Version=ES64L-G16RevB.01\State=1-A'\HF=-45
 4.0918822\RMSD=2.498e-09\RMSF=3.189e-05\Dipole=-1.8594016,-1.5898462,0
 .\Quadrupole=0.3930303,-2.4568912,2.0638608,7.8953612,0.,0.\PG=CS [SG(
 C5H4N2O2),X(H2)]\\@


 THE WHOLE OF SCIENCE IS NOTHING MORE THAN A REFINEMENT OF EVERYDAY THINKING.
                                                              -- A. EINSTEIN
 Job cpu time:       0 days  0 hours 53 minutes 55.1 seconds.
 Elapsed time:       0 days  0 hours  1 minutes  4.7 seconds.
 File lengths (MBytes):  RWF=     71 Int=      0 D2E=      0 Chk=      6 Scr=      1
 Normal termination of Gaussian 16 at Thu Jan  5 10:31:23 2023.
