 Entering Gaussian System, Link 0=/shared/gaussian/g16.b01/AVX2/g16/g16
 Initial command:
 /shared/gaussian/g16.b01/AVX2/g16/l1.exe "/scratch/marlene/SCRGAU.105747.Thymine6311-opt-solv/Gau-69633.inp" -scrdir="/scratch/marlene/SCRGAU.105747.Thymine6311-opt-solv/"
 Entering Link 1 = /shared/gaussian/g16.b01/AVX2/g16/l1.exe PID=     69634.
  
 Copyright (c) 1988-2017, Gaussian, Inc.  All Rights Reserved.
  
 This is part of the Gaussian(R) 16 program.  It is based on
 the Gaussian(R) 09 system (copyright 2009, Gaussian, Inc.),
 the Gaussian(R) 03 system (copyright 2003, Gaussian, Inc.),
 the Gaussian(R) 98 system (copyright 1998, Gaussian, Inc.),
 the Gaussian(R) 94 system (copyright 1995, Gaussian, Inc.),
 the Gaussian 92(TM) system (copyright 1992, Gaussian, Inc.),
 the Gaussian 90(TM) system (copyright 1990, Gaussian, Inc.),
 the Gaussian 88(TM) system (copyright 1988, Gaussian, Inc.),
 the Gaussian 86(TM) system (copyright 1986, Carnegie Mellon
 University), and the Gaussian 82(TM) system (copyright 1983,
 Carnegie Mellon University). Gaussian is a federally registered
 trademark of Gaussian, Inc.
  
 This software contains proprietary and confidential information,
 including trade secrets, belonging to Gaussian, Inc.
  
 This software is provided under written license and may be
 used, copied, transmitted, or stored only in accord with that
 written license.
  
 The following legend is applicable only to US Government
 contracts under FAR:
  
                    RESTRICTED RIGHTS LEGEND
  
 Use, reproduction and disclosure by the US Government is
 subject to restrictions as set forth in subparagraphs (a)
 and (c) of the Commercial Computer Software - Restricted
 Rights clause in FAR 52.227-19.
  
 Gaussian, Inc.
 340 Quinnipiac St., Bldg. 40, Wallingford CT 06492
  
  
 ---------------------------------------------------------------
 Warning -- This program may not be used in any manner that
 competes with the business of Gaussian, Inc. or will provide
 assistance to any competitor of Gaussian, Inc.  The licensee
 of this program is prohibited from giving any competitor of
 Gaussian, Inc. access to this program.  By using this program,
 the user acknowledges that Gaussian, Inc. is engaged in the
 business of creating and licensing software in the field of
 computational chemistry and represents and warrants to the
 licensee that it is not a competitor of Gaussian, Inc. and that
 it will not use this program in any manner prohibited above.
 ---------------------------------------------------------------
  

 Cite this work as:
 Gaussian 16, Revision B.01,
 M. J. Frisch, G. W. Trucks, H. B. Schlegel, G. E. Scuseria, 
 M. A. Robb, J. R. Cheeseman, G. Scalmani, V. Barone, 
 G. A. Petersson, H. Nakatsuji, X. Li, M. Caricato, A. V. Marenich, 
 J. Bloino, B. G. Janesko, R. Gomperts, B. Mennucci, H. P. Hratchian, 
 J. V. Ortiz, A. F. Izmaylov, J. L. Sonnenberg, D. Williams-Young, 
 F. Ding, F. Lipparini, F. Egidi, J. Goings, B. Peng, A. Petrone, 
 T. Henderson, D. Ranasinghe, V. G. Zakrzewski, J. Gao, N. Rega, 
 G. Zheng, W. Liang, M. Hada, M. Ehara, K. Toyota, R. Fukuda, 
 J. Hasegawa, M. Ishida, T. Nakajima, Y. Honda, O. Kitao, H. Nakai, 
 T. Vreven, K. Throssell, J. A. Montgomery, Jr., J. E. Peralta, 
 F. Ogliaro, M. J. Bearpark, J. J. Heyd, E. N. Brothers, K. N. Kudin, 
 V. N. Staroverov, T. A. Keith, R. Kobayashi, J. Normand, 
 K. Raghavachari, A. P. Rendell, J. C. Burant, S. S. Iyengar, 
 J. Tomasi, M. Cossi, J. M. Millam, M. Klene, C. Adamo, R. Cammi, 
 J. W. Ochterski, R. L. Martin, K. Morokuma, O. Farkas, 
 J. B. Foresman, and D. J. Fox, Gaussian, Inc., Wallingford CT, 2016.
 
 ******************************************
 Gaussian 16:  ES64L-G16RevB.01 20-Dec-2017
                 5-Jan-2023 
 ******************************************
 %nprocshared=50
 Will use up to   50 processors via shared memory.
 %mem=10GB
 %chk=Thymine6311-opt-solv.chk
 -----------------------------------------------------------------
 #p opt cam-b3lyp/6-311+G(d,p) scrf=(solvent=water,pcm) symm=loose
 -----------------------------------------------------------------
 1/18=20,19=15,26=3,38=1/1,3;
 2/9=110,12=2,17=4,18=3,40=1/2;
 3/5=4,6=6,7=111,11=2,25=1,30=1,70=2201,71=1,72=1,74=-40/1,2,3;
 4//1;
 5/5=2,38=5,53=1/2;
 6/7=2,8=2,9=2,10=2,28=1/1;
 7//1,2,3,16;
 1/18=20,19=15,26=3/3(2);
 2/9=110/2;
 99//99;
 2/9=110/2;
 3/5=4,6=6,7=111,11=2,25=1,30=1,70=2205,71=1,72=1,74=-40/1,2,3;
 4/5=5,16=3,69=1/1;
 5/5=2,38=5,53=1/2;
 7//1,2,3,16;
 1/18=20,19=15,26=3/3(-5);
 2/9=110/2;
 6/7=2,8=2,9=2,10=2,19=2,28=1/1;
 99/9=1/99;
 Leave Link    1 at Thu Jan  5 10:57:47 2023, MaxMem=  1342177280 cpu:               2.2 elap:               0.1
 (Enter /shared/gaussian/g16.b01/AVX2/g16/l101.exe)
 ----------------
 Thymine solvated
 ----------------
 Symbolic Z-matrix:
 Charge =  0 Multiplicity = 1
 N                    -0.23269  -0.03006  -0.19172 
 C                     1.08577  -0.40089  -0.14002 
 N                     1.96464   0.6328    0.01663 
 C                     1.56815   1.93801   0.11969 
 C                     0.27087   2.31002   0.08069 
 C                    -0.72347   1.26619  -0.07934 
 H                    -0.9138   -0.78596  -0.33583 
 O                     1.45447  -1.57621  -0.22941 
 H                     2.94957   0.36819   0.0516 
 H                     2.3706    2.6511    0.23812 
 O                    -1.93819   1.47799  -0.12174 
 C                    -0.18264   3.73192   0.19831 
 H                    -0.74422   4.03838  -0.68556 
 H                    -0.84431   3.86187   1.05616 
 H                     0.66842   4.4003    0.31496 
 O                    -2.2301   -2.136    -0.55061 
 H                     0.42306  -3.10272   0.4616 
 O                     4.24451  -1.11111   0.01257 
 H                    -3.35011   0.41318   0.07159 
 H                    -3.00786  -1.59102  -0.28426 
 H                    -2.38298  -2.39181  -1.46612 
 O                    -0.24791  -3.73196   0.76617 
 H                    -1.06617  -3.3477    0.41681 
 H                     3.41876  -1.60827  -0.12216 
 H                     4.71349  -1.17052  -0.82645 
 O                    -4.0537   -0.26617   0.14592 
 H                    -4.30268  -0.27799   1.0759 
 
 Add virtual bond connecting atoms O26        and H20        Dist= 3.29D+00.
 Add virtual bond connecting atoms O16        and H7         Dist= 3.59D+00.
 Add virtual bond connecting atoms H19        and O11        Dist= 3.36D+00.
 Add virtual bond connecting atoms H17        and O8         Dist= 3.72D+00.
 Add virtual bond connecting atoms H23        and O16        Dist= 3.66D+00.
 Add virtual bond connecting atoms O18        and H9         Dist= 3.72D+00.
 Add virtual bond connecting atoms H24        and O8         Dist= 3.72D+00.
 Add virtual bond connecting atoms H24        and H9         Dist= 3.85D+00.
 Add atom     18 valence  3 ND=      2 dihedral       9     18     24     25
 ITRead=  0  0  0  0  0  0  0  0  0  0  0  0  0  0  0  0  0  0  0  0
 ITRead=  0  0  0  0  0  0  0
 MicOpt= -1 -1 -1 -1 -1 -1 -1 -1 -1 -1 -1 -1 -1 -1 -1 -1 -1 -1 -1 -1
 MicOpt= -1 -1 -1 -1 -1 -1 -1
 NAtoms=     27 NQM=       27 NQMF=       0 NMMI=      0 NMMIF=      0
                NMic=       0 NMicF=      0.
                    Isotopes and Nuclear Properties:
 (Nuclear quadrupole moments (NQMom) in fm**2, nuclear magnetic moments (NMagM)
  in nuclear magnetons)

  Atom         1           2           3           4           5           6           7           8           9          10
 IAtWgt=          14          12          14          12          12          12           1          16           1           1
 AtmWgt=  14.0030740  12.0000000  14.0030740  12.0000000  12.0000000  12.0000000   1.0078250  15.9949146   1.0078250   1.0078250
 NucSpn=           2           0           2           0           0           0           1           0           1           1
 AtZEff=  -0.0000000  -0.0000000  -0.0000000  -0.0000000  -0.0000000  -0.0000000  -0.0000000  -0.0000000  -0.0000000  -0.0000000
 NQMom=    2.0440000   0.0000000   2.0440000   0.0000000   0.0000000   0.0000000   0.0000000   0.0000000   0.0000000   0.0000000
 NMagM=    0.4037610   0.0000000   0.4037610   0.0000000   0.0000000   0.0000000   2.7928460   0.0000000   2.7928460   2.7928460
 AtZNuc=   7.0000000   6.0000000   7.0000000   6.0000000   6.0000000   6.0000000   1.0000000   8.0000000   1.0000000   1.0000000

  Atom        11          12          13          14          15          16          17          18          19          20
 IAtWgt=          16          12           1           1           1          16           1          16           1           1
 AtmWgt=  15.9949146  12.0000000   1.0078250   1.0078250   1.0078250  15.9949146   1.0078250  15.9949146   1.0078250   1.0078250
 NucSpn=           0           0           1           1           1           0           1           0           1           1
 AtZEff=  -0.0000000  -0.0000000  -0.0000000  -0.0000000  -0.0000000  -0.0000000  -0.0000000  -0.0000000  -0.0000000  -0.0000000
 NQMom=    0.0000000   0.0000000   0.0000000   0.0000000   0.0000000   0.0000000   0.0000000   0.0000000   0.0000000   0.0000000
 NMagM=    0.0000000   0.0000000   2.7928460   2.7928460   2.7928460   0.0000000   2.7928460   0.0000000   2.7928460   2.7928460
 AtZNuc=   8.0000000   6.0000000   1.0000000   1.0000000   1.0000000   8.0000000   1.0000000   8.0000000   1.0000000   1.0000000

  Atom        21          22          23          24          25          26          27
 IAtWgt=           1          16           1           1           1          16           1
 AtmWgt=   1.0078250  15.9949146   1.0078250   1.0078250   1.0078250  15.9949146   1.0078250
 NucSpn=           1           0           1           1           1           0           1
 AtZEff=  -0.0000000  -0.0000000  -0.0000000  -0.0000000  -0.0000000  -0.0000000  -0.0000000
 NQMom=    0.0000000   0.0000000   0.0000000   0.0000000   0.0000000   0.0000000   0.0000000
 NMagM=    2.7928460   0.0000000   2.7928460   2.7928460   2.7928460   0.0000000   2.7928460
 AtZNuc=   1.0000000   8.0000000   1.0000000   1.0000000   1.0000000   8.0000000   1.0000000
 Leave Link  101 at Thu Jan  5 10:57:48 2023, MaxMem=  1342177280 cpu:              30.8 elap:               0.6
 (Enter /shared/gaussian/g16.b01/AVX2/g16/l103.exe)

 GradGradGradGradGradGradGradGradGradGradGradGradGradGradGradGradGradGrad
 Berny optimization.
 Initialization pass.
                           ----------------------------
                           !    Initial Parameters    !
                           ! (Angstroms and Degrees)  !
 --------------------------                            --------------------------
 ! Name  Definition              Value          Derivative Info.                !
 --------------------------------------------------------------------------------
 ! R1    R(1,2)                  1.3706         estimate D2E/DX2                !
 ! R2    R(1,6)                  1.3906         estimate D2E/DX2                !
 ! R3    R(1,7)                  1.0277         estimate D2E/DX2                !
 ! R4    R(2,3)                  1.3658         estimate D2E/DX2                !
 ! R5    R(2,8)                  1.235          estimate D2E/DX2                !
 ! R6    R(3,4)                  1.368          estimate D2E/DX2                !
 ! R7    R(3,9)                  1.0205         estimate D2E/DX2                !
 ! R8    R(4,5)                  1.3501         estimate D2E/DX2                !
 ! R9    R(4,10)                 1.08           estimate D2E/DX2                !
 ! R10   R(5,6)                  1.4505         estimate D2E/DX2                !
 ! R11   R(5,12)                 1.4971         estimate D2E/DX2                !
 ! R12   R(6,11)                 1.2338         estimate D2E/DX2                !
 ! R13   R(7,16)                 1.8977         estimate D2E/DX2                !
 ! R14   R(8,17)                 1.9676         estimate D2E/DX2                !
 ! R15   R(8,24)                 1.9675         estimate D2E/DX2                !
 ! R16   R(9,18)                 1.9664         estimate D2E/DX2                !
 ! R17   R(9,24)                 2.0388         estimate D2E/DX2                !
 ! R18   R(11,19)                1.779          estimate D2E/DX2                !
 ! R19   R(12,13)                1.0911         estimate D2E/DX2                !
 ! R20   R(12,14)                1.0911         estimate D2E/DX2                !
 ! R21   R(12,15)                1.0884         estimate D2E/DX2                !
 ! R22   R(16,20)                0.9863         estimate D2E/DX2                !
 ! R23   R(16,21)                0.9628         estimate D2E/DX2                !
 ! R24   R(16,23)                1.9388         estimate D2E/DX2                !
 ! R25   R(17,22)                0.969          estimate D2E/DX2                !
 ! R26   R(18,24)                0.9732         estimate D2E/DX2                !
 ! R27   R(18,25)                0.963          estimate D2E/DX2                !
 ! R28   R(19,26)                0.9809         estimate D2E/DX2                !
 ! R29   R(20,26)                1.7419         estimate D2E/DX2                !
 ! R30   R(22,23)                0.9692         estimate D2E/DX2                !
 ! R31   R(26,27)                0.9628         estimate D2E/DX2                !
 ! A1    A(2,1,6)              126.062          estimate D2E/DX2                !
 ! A2    A(2,1,7)              116.3497         estimate D2E/DX2                !
 ! A3    A(6,1,7)              117.5857         estimate D2E/DX2                !
 ! A4    A(1,2,3)              114.7437         estimate D2E/DX2                !
 ! A5    A(1,2,8)              122.8151         estimate D2E/DX2                !
 ! A6    A(3,2,8)              122.4411         estimate D2E/DX2                !
 ! A7    A(2,3,4)              122.9723         estimate D2E/DX2                !
 ! A8    A(2,3,9)              115.3885         estimate D2E/DX2                !
 ! A9    A(4,3,9)              121.6392         estimate D2E/DX2                !
 ! A10   A(3,4,5)              122.6292         estimate D2E/DX2                !
 ! A11   A(3,4,10)             115.0159         estimate D2E/DX2                !
 ! A12   A(5,4,10)             122.3546         estimate D2E/DX2                !
 ! A13   A(4,5,6)              117.6192         estimate D2E/DX2                !
 ! A14   A(4,5,12)             123.4008         estimate D2E/DX2                !
 ! A15   A(6,5,12)             118.9796         estimate D2E/DX2                !
 ! A16   A(1,6,5)              115.963          estimate D2E/DX2                !
 ! A17   A(1,6,11)             120.3131         estimate D2E/DX2                !
 ! A18   A(5,6,11)             123.7235         estimate D2E/DX2                !
 ! A19   A(2,8,17)             123.8068         estimate D2E/DX2                !
 ! A20   A(2,8,24)             108.0358         estimate D2E/DX2                !
 ! A21   A(17,8,24)            119.4432         estimate D2E/DX2                !
 ! A22   A(3,9,18)             146.0989         estimate D2E/DX2                !
 ! A23   A(3,9,24)             118.0718         estimate D2E/DX2                !
 ! A24   A(6,11,19)            132.4485         estimate D2E/DX2                !
 ! A25   A(5,12,13)            111.0409         estimate D2E/DX2                !
 ! A26   A(5,12,14)            111.0126         estimate D2E/DX2                !
 ! A27   A(5,12,15)            110.781          estimate D2E/DX2                !
 ! A28   A(13,12,14)           106.9365         estimate D2E/DX2                !
 ! A29   A(13,12,15)           108.4684         estimate D2E/DX2                !
 ! A30   A(14,12,15)           108.4676         estimate D2E/DX2                !
 ! A31   A(7,16,20)             97.0829         estimate D2E/DX2                !
 ! A32   A(7,16,21)            114.002          estimate D2E/DX2                !
 ! A33   A(7,16,23)             88.3798         estimate D2E/DX2                !
 ! A34   A(20,16,21)           106.1631         estimate D2E/DX2                !
 ! A35   A(20,16,23)           133.1545         estimate D2E/DX2                !
 ! A36   A(21,16,23)           113.8134         estimate D2E/DX2                !
 ! A37   A(9,18,25)            112.6064         estimate D2E/DX2                !
 ! A38   A(24,18,25)           105.1334         estimate D2E/DX2                !
 ! A39   A(16,20,26)           163.8208         estimate D2E/DX2                !
 ! A40   A(17,22,23)           102.3485         estimate D2E/DX2                !
 ! A41   A(16,23,22)           159.1549         estimate D2E/DX2                !
 ! A42   A(8,24,9)              76.06           estimate D2E/DX2                !
 ! A43   A(8,24,18)            147.8128         estimate D2E/DX2                !
 ! A44   A(19,26,20)            94.4384         estimate D2E/DX2                !
 ! A45   A(19,26,27)           105.4977         estimate D2E/DX2                !
 ! A46   A(20,26,27)           112.6112         estimate D2E/DX2                !
 ! A47   L(1,7,16,17,-1)       181.5992         estimate D2E/DX2                !
 ! A48   L(8,17,22,16,-1)      168.1733         estimate D2E/DX2                !
 ! A49   L(11,19,26,16,-1)     172.8036         estimate D2E/DX2                !
 ! A50   L(1,7,16,17,-2)       177.7235         estimate D2E/DX2                !
 ! A51   L(8,17,22,16,-2)      183.3244         estimate D2E/DX2                !
 ! A52   L(11,19,26,16,-2)     180.0865         estimate D2E/DX2                !
 ! D1    D(6,1,2,3)             -1.0709         estimate D2E/DX2                !
 ! D2    D(6,1,2,8)            179.0187         estimate D2E/DX2                !
 ! D3    D(7,1,2,3)            178.3296         estimate D2E/DX2                !
 ! D4    D(7,1,2,8)             -1.5808         estimate D2E/DX2                !
 ! D5    D(2,1,6,5)              1.2794         estimate D2E/DX2                !
 ! D6    D(2,1,6,11)          -178.9342         estimate D2E/DX2                !
 ! D7    D(7,1,6,5)           -178.1145         estimate D2E/DX2                !
 ! D8    D(7,1,6,11)             1.6719         estimate D2E/DX2                !
 ! D9    D(2,1,16,20)          164.5951         estimate D2E/DX2                !
 ! D10   D(2,1,16,21)          -84.4571         estimate D2E/DX2                !
 ! D11   D(2,1,16,23)           31.2953         estimate D2E/DX2                !
 ! D12   D(6,1,16,20)          -14.9578         estimate D2E/DX2                !
 ! D13   D(6,1,16,21)           95.99           estimate D2E/DX2                !
 ! D14   D(6,1,16,23)         -148.2577         estimate D2E/DX2                !
 ! D15   D(1,2,3,4)              0.2356         estimate D2E/DX2                !
 ! D16   D(1,2,3,9)           -179.7018         estimate D2E/DX2                !
 ! D17   D(8,2,3,4)           -179.8535         estimate D2E/DX2                !
 ! D18   D(8,2,3,9)              0.209          estimate D2E/DX2                !
 ! D19   D(1,2,8,17)           -33.4546         estimate D2E/DX2                !
 ! D20   D(1,2,8,24)           179.3852         estimate D2E/DX2                !
 ! D21   D(3,2,8,17)           146.6417         estimate D2E/DX2                !
 ! D22   D(3,2,8,24)            -0.5185         estimate D2E/DX2                !
 ! D23   D(2,3,4,5)              0.3052         estimate D2E/DX2                !
 ! D24   D(2,3,4,10)          -179.8851         estimate D2E/DX2                !
 ! D25   D(9,3,4,5)           -179.7611         estimate D2E/DX2                !
 ! D26   D(9,3,4,10)             0.0486         estimate D2E/DX2                !
 ! D27   D(2,3,9,18)            -1.3877         estimate D2E/DX2                !
 ! D28   D(2,3,9,24)             0.2418         estimate D2E/DX2                !
 ! D29   D(4,3,9,18)           178.6739         estimate D2E/DX2                !
 ! D30   D(4,3,9,24)          -179.6966         estimate D2E/DX2                !
 ! D31   D(3,4,5,6)             -0.0833         estimate D2E/DX2                !
 ! D32   D(3,4,5,12)           179.7            estimate D2E/DX2                !
 ! D33   D(10,4,5,6)          -179.8791         estimate D2E/DX2                !
 ! D34   D(10,4,5,12)           -0.0959         estimate D2E/DX2                !
 ! D35   D(4,5,6,1)             -0.6371         estimate D2E/DX2                !
 ! D36   D(4,5,6,11)           179.5846         estimate D2E/DX2                !
 ! D37   D(12,5,6,1)           179.5698         estimate D2E/DX2                !
 ! D38   D(12,5,6,11)           -0.2085         estimate D2E/DX2                !
 ! D39   D(4,5,12,13)          120.6901         estimate D2E/DX2                !
 ! D40   D(4,5,12,14)         -120.4859         estimate D2E/DX2                !
 ! D41   D(4,5,12,15)            0.0922         estimate D2E/DX2                !
 ! D42   D(6,5,12,13)          -59.5294         estimate D2E/DX2                !
 ! D43   D(6,5,12,14)           59.2945         estimate D2E/DX2                !
 ! D44   D(6,5,12,15)          179.8726         estimate D2E/DX2                !
 ! D45   D(1,6,11,19)           16.8338         estimate D2E/DX2                !
 ! D46   D(5,6,11,19)         -163.3971         estimate D2E/DX2                !
 ! D47   D(2,8,22,23)           41.8336         estimate D2E/DX2                !
 ! D48   D(24,8,22,23)        -173.6364         estimate D2E/DX2                !
 ! D49   D(2,8,24,9)             0.431          estimate D2E/DX2                !
 ! D50   D(2,8,24,18)            4.5994         estimate D2E/DX2                !
 ! D51   D(17,8,24,9)         -148.409          estimate D2E/DX2                !
 ! D52   D(17,8,24,18)        -144.2406         estimate D2E/DX2                !
 ! D53   D(3,9,18,25)          105.444          estimate D2E/DX2                !
 ! D54   D(3,9,24,8)            -0.4027         estimate D2E/DX2                !
 ! D55   D(6,11,26,20)         -21.6623         estimate D2E/DX2                !
 ! D56   D(6,11,26,27)          92.0386         estimate D2E/DX2                !
 ! D57   D(7,16,20,26)          11.4624         estimate D2E/DX2                !
 ! D58   D(21,16,20,26)       -106.1041         estimate D2E/DX2                !
 ! D59   D(23,16,20,26)        105.9038         estimate D2E/DX2                !
 ! D60   D(7,16,23,22)         -26.6416         estimate D2E/DX2                !
 ! D61   D(20,16,23,22)       -124.8383         estimate D2E/DX2                !
 ! D62   D(21,16,23,22)         88.973          estimate D2E/DX2                !
 ! D63   D(9,18,24,25)         110.9207         estimate D2E/DX2                !
 ! D64   D(25,18,24,8)        -115.1787         estimate D2E/DX2                !
 ! D65   D(16,20,26,19)         -1.3519         estimate D2E/DX2                !
 ! D66   D(16,20,26,27)       -110.1749         estimate D2E/DX2                !
 ! D67   D(17,22,23,16)          3.794          estimate D2E/DX2                !
 --------------------------------------------------------------------------------
 Trust Radius=3.00D-01 FncErr=1.00D-07 GrdErr=1.00D-06 EigMax=2.50D+02 EigMin=1.00D-04
 Number of steps in this run=    160 maximum allowed number of steps=    162.
 GradGradGradGradGradGradGradGradGradGradGradGradGradGradGradGradGradGrad

 Leave Link  103 at Thu Jan  5 10:57:48 2023, MaxMem=  1342177280 cpu:               0.5 elap:               0.0
 (Enter /shared/gaussian/g16.b01/AVX2/g16/l202.exe)
                          Input orientation:                          
 ---------------------------------------------------------------------
 Center     Atomic      Atomic             Coordinates (Angstroms)
 Number     Number       Type             X           Y           Z
 ---------------------------------------------------------------------
      1          7           0       -0.232692   -0.030058   -0.191719
      2          6           0        1.085765   -0.400886   -0.140017
      3          7           0        1.964639    0.632802    0.016627
      4          6           0        1.568151    1.938012    0.119694
      5          6           0        0.270870    2.310018    0.080691
      6          6           0       -0.723473    1.266188   -0.079336
      7          1           0       -0.913803   -0.785962   -0.335828
      8          8           0        1.454470   -1.576213   -0.229411
      9          1           0        2.949570    0.368188    0.051604
     10          1           0        2.370604    2.651102    0.238115
     11          8           0       -1.938190    1.477991   -0.121738
     12          6           0       -0.182641    3.731918    0.198313
     13          1           0       -0.744222    4.038382   -0.685557
     14          1           0       -0.844305    3.861865    1.056158
     15          1           0        0.668415    4.400299    0.314958
     16          8           0       -2.230102   -2.136005   -0.550611
     17          1           0        0.423058   -3.102723    0.461596
     18          8           0        4.244506   -1.111113    0.012571
     19          1           0       -3.350113    0.413180    0.071585
     20          1           0       -3.007860   -1.591021   -0.284262
     21          1           0       -2.382979   -2.391807   -1.466116
     22          8           0       -0.247911   -3.731960    0.766172
     23          1           0       -1.066171   -3.347699    0.416813
     24          1           0        3.418761   -1.608266   -0.122162
     25          1           0        4.713494   -1.170519   -0.826452
     26          8           0       -4.053702   -0.266167    0.145919
     27          1           0       -4.302679   -0.277985    1.075898
 ---------------------------------------------------------------------
                    Distance matrix (angstroms):
                    1          2          3          4          5
     1  N    0.000000
     2  C    1.370589   0.000000
     3  N    2.304573   1.365821   0.000000
     4  C    2.685761   2.402205   1.367991   0.000000
     5  C    2.409095   2.839325   2.384536   1.350129   0.000000
     6  C    1.390593   2.460927   2.763392   2.396352   1.450485
     7  H    1.027653   2.045702   3.228397   3.713170   3.340962
     8  O    2.288784   1.235042   2.280472   3.533352   4.074293
     9  H    3.216302   2.025330   1.020457   2.092200   3.308623
    10  H    3.761719   3.332931   2.070604   1.080024   2.133074
    11  O    2.277681   3.560171   3.995693   3.544621   2.369218
    12  C    3.782472   4.336288   3.774697   2.507898   1.497099
    13  H    4.130102   4.832553   4.407830   3.225996   2.145877
    14  H    4.132594   4.829809   4.404275   3.224611   2.145549
    15  H    4.549371   4.840719   3.995401   2.628785   2.140607
    16  O    2.924630   3.764864   5.058053   5.610138   5.140090
    17  H    3.209065   2.846233   4.065540   5.180458   5.428261
    18  O    4.610392   3.241196   2.870374   4.058511   5.243907
    19  H    3.159763   4.514919   5.319572   5.149442   4.087737
    20  H    3.185393   4.265559   5.455426   5.792852   5.108950
    21  H    3.438849   4.213608   5.499870   6.072360   5.616287
    22  O    3.823855   3.700800   4.950590   5.988706   6.102829
    23  H    3.474441   3.691151   5.018999   5.913262   5.823265
    24  H    3.978528   2.626967   2.675092   4.007411   5.030240
    25  H    5.115495   3.771465   3.393958   4.522316   5.716114
    26  O    3.843158   5.149178   6.086484   6.038570   5.034174
    27  H    4.270025   5.525295   6.421126   6.347568   5.348415
                    6          7          8          9         10
     6  C    0.000000
     7  H    2.076857   0.000000
     8  O    3.584020   2.498907   0.000000
     9  H    3.783490   4.050656   2.468803   0.000000
    10  H    3.404714   4.788543   4.350641   2.362559   0.000000
    11  O    1.233773   2.494130   4.566169   5.015168   4.480110
    12  C    2.539569   4.607727   5.571296   4.598581   2.772870
    13  H    2.837780   4.839976   6.046982   5.259071   3.532684
    14  H    2.835751   4.852293   6.042330   5.254369   3.531399
    15  H    3.451879   5.461157   6.052513   4.640145   2.441934
    16  O    3.750593   1.897733   3.740669   5.784691   6.686178
    17  H    4.549123   2.791140   1.967621   4.312607   6.078600
    18  O    5.508250   5.180276   2.838868   1.966396   4.209114
    19  H    2.765798   2.745821   5.208868   6.299875   6.145131
    20  H    3.663886   2.244071   4.462692   6.280309   6.869961
    21  H    4.249476   2.452502   4.113471   6.193313   7.136658
    22  O    5.091417   3.215077   2.921734   5.248400   6.919461
    23  H    4.653124   2.674356   3.147920   5.483372   6.915849
    24  H    5.042065   4.415082   1.967478   2.038800   4.401210
    25  H    6.004693   5.661719   3.338006   2.500006   4.607301
    26  O    3.672775   3.218887   5.674245   7.032576   7.056250
    27  H    4.065680   3.706142   6.044336   7.352675   7.335812
                   11         12         13         14         15
    11  O    0.000000
    12  C    2.874817   0.000000
    13  H    2.880808   1.091109   0.000000
    14  H    2.875218   1.091139   1.753495   0.000000
    15  H    3.940175   1.088410   1.768490   1.768505   0.000000
    16  O    3.651043   6.259833   6.352095   6.362121   7.202352
    17  H    5.186397   6.866477   7.326246   7.103886   7.508465
    18  O    6.704269   6.564227   7.203616   7.191355   6.576893
    19  H    1.778967   4.589440   4.528357   4.375144   5.666120
    20  H    3.254142   6.045529   6.080730   6.017613   7.054784
    21  H    4.120743   6.716533   6.681476   6.916487   7.656104
    22  O    5.548785   7.485733   7.920357   7.622726   8.196151
    23  H    4.933329   7.137881   7.474829   7.241257   7.940443
    24  H    6.182387   6.449059   7.037931   7.034522   6.622562
    25  H    7.194173   7.004011   7.545804   7.730345   6.978502
    26  O    2.754835   5.565298   5.493009   5.307486   6.640999
    27  H    3.179401   5.815857   5.864841   5.394358   6.868562
                   16         17         18         19         20
    16  O    0.000000
    17  H    2.999727   0.000000
    18  O    6.579371   4.332620   0.000000
    19  H    2.853050   5.172089   7.746302   0.000000
    20  H    0.986335   3.822662   7.274286   2.064119   0.000000
    21  H    0.962785   3.477832   6.910156   3.341830   1.558369
    22  O    2.865322   0.968971   5.255337   5.223820   3.647513
    23  H    1.938775   1.509908   5.776592   4.413591   2.710642
    24  H    5.689616   3.398295   0.973226   7.066926   6.428688
    25  H    7.015823   4.878557   0.963036   8.266579   7.751780
    26  O    2.703140   5.309151   8.342180   0.980854   1.741861
    27  H    3.223871   5.539775   8.653273   1.547170   2.291431
                   21         22         23         24         25
    21  H    0.000000
    22  O    3.367140   0.000000
    23  H    2.488601   0.969153   0.000000
    24  H    6.006691   4.329399   4.840531   0.000000
    25  H    7.229152   5.806287   6.300028   1.537524   0.000000
    26  O    3.147748   5.184639   4.300531   7.596762   8.867191
    27  H    3.823000   5.335449   4.509160   7.926262   9.257804
                   26         27
    26  O    0.000000
    27  H    0.962803   0.000000
 Stoichiometry    C5H14N2O6
 Framework group  C1[X(C5H14N2O6)]
 Deg. of freedom    75
 Full point group                 C1      NOp   1
 Largest Abelian subgroup         C1      NOp   1
 Largest concise Abelian subgroup C1      NOp   1
                         Standard orientation:                         
 ---------------------------------------------------------------------
 Center     Atomic      Atomic             Coordinates (Angstroms)
 Number     Number       Type             X           Y           Z
 ---------------------------------------------------------------------
      1          7           0       -0.232692   -0.030058   -0.191719
      2          6           0        1.085765   -0.400886   -0.140017
      3          7           0        1.964639    0.632802    0.016627
      4          6           0        1.568151    1.938012    0.119694
      5          6           0        0.270870    2.310018    0.080691
      6          6           0       -0.723473    1.266188   -0.079336
      7          1           0       -0.913803   -0.785962   -0.335828
      8          8           0        1.454470   -1.576213   -0.229411
      9          1           0        2.949570    0.368188    0.051604
     10          1           0        2.370604    2.651102    0.238115
     11          8           0       -1.938190    1.477991   -0.121738
     12          6           0       -0.182641    3.731918    0.198313
     13          1           0       -0.744222    4.038382   -0.685557
     14          1           0       -0.844305    3.861865    1.056158
     15          1           0        0.668415    4.400299    0.314958
     16          8           0       -2.230102   -2.136005   -0.550611
     17          1           0        0.423058   -3.102723    0.461596
     18          8           0        4.244506   -1.111113    0.012571
     19          1           0       -3.350113    0.413180    0.071585
     20          1           0       -3.007860   -1.591021   -0.284262
     21          1           0       -2.382979   -2.391807   -1.466116
     22          8           0       -0.247911   -3.731960    0.766172
     23          1           0       -1.066171   -3.347699    0.416813
     24          1           0        3.418761   -1.608266   -0.122162
     25          1           0        4.713494   -1.170519   -0.826452
     26          8           0       -4.053702   -0.266167    0.145919
     27          1           0       -4.302679   -0.277986    1.075898
 ---------------------------------------------------------------------
 Rotational constants (GHZ):           0.6239313           0.5305305           0.2945938
 Leave Link  202 at Thu Jan  5 10:57:48 2023, MaxMem=  1342177280 cpu:               0.2 elap:               0.0
 (Enter /shared/gaussian/g16.b01/AVX2/g16/l301.exe)
 Standard basis: 6-311+G(d,p) (5D, 7F)
 Ernie: Thresh=  0.10000D-02 Tol=  0.10000D-05 Strict=F.
 There are   383 symmetry adapted cartesian basis functions of A   symmetry.
 There are   370 symmetry adapted basis functions of A   symmetry.
   370 basis functions,   580 primitive gaussians,   383 cartesian basis functions
    53 alpha electrons       53 beta electrons
       nuclear repulsion energy       870.6302224696 Hartrees.
 IExCor=20419 DFT=T Ex+Corr=CAM-B3LYP ExCW=0 ScaHFX=  1.000000
 ScaDFX=  1.000000  1.000000  1.000000  0.810000 ScalE2=  1.000000  1.000000
 IRadAn=      5 IRanWt=     -1 IRanGd=            0 ICorTp=0 IEmpDi=  4
 HFx  wShort=  0.000000 wLong=  0.330000 cFull=  0.190000 cShort=  0.000000 cLong=  0.460000
 DFx  wShort=  0.000000 wLong=  0.330000 cFull=  0.190000 cShort=  0.000000 cLong=  0.460000
 NAtoms=   27 NActive=   27 NUniq=   27 SFac= 1.00D+00 NAtFMM=   60 NAOKFM=F Big=F
 Integral buffers will be    131072 words long.
 Raffenetti 2 integral format.
 Two-electron integral symmetry is turned on.
 ------------------------------------------------------------------------------
 Polarizable Continuum Model (PCM)
 =================================
 Model                : PCM.
 Atomic radii         : UFF (Universal Force Field).
 Polarization charges : Total charges.
 Charge compensation  : None.
 Solution method      : On-the-fly selection.
 Cavity type          : Scaled VdW (van der Waals Surface) (Alpha=1.100).
 Cavity algorithm     : GePol (No added spheres)
                        Default sphere list used, NSphG=   27.
                        Lebedev-Laikov grids with approx.  5.0 points / Ang**2.
                        Smoothing algorithm: York/Karplus (Gamma=1.0000).
                        Polarization charges: spherical gaussians, with
                                              point-specific exponents (IZeta= 3).
                        Self-potential: point-specific (ISelfS= 7).
                        Self-field    : sphere-specific E.n sum rule (ISelfD= 2).
 1st derivatives      : Analytical E(r).r(x)/FMM algorithm (CHGder, D1EAlg=3).
                        Cavity 1st derivative terms included.
 Solvent              : Water, Eps=  78.355300 Eps(inf)=   1.777849
 ------------------------------------------------------------------------------
 GePol: Number of generator spheres                  =      27
 GePol: Total number of spheres                      =      27
 GePol: Number of exposed spheres                    =      27 (100.00%)
 GePol: Number of points                             =    2297
 GePol: Average weight of points                     =       0.12
 GePol: Minimum weight of points                     =   0.20D-09
 GePol: Maximum weight of points                     =    0.20577
 GePol: Number of points with low weight             =     132
 GePol: Fraction of low-weight points (<1% of avg)   =       5.75%
 GePol: Cavity surface area                          =    282.668 Ang**2
 GePol: Cavity volume                                =    279.843 Ang**3
 Leave Link  301 at Thu Jan  5 10:57:48 2023, MaxMem=  1342177280 cpu:               3.2 elap:               0.1
 (Enter /shared/gaussian/g16.b01/AVX2/g16/l302.exe)
 NPDir=0 NMtPBC=     1 NCelOv=     1 NCel=       1 NClECP=     1 NCelD=      1
         NCelK=      1 NCelE2=     1 NClLst=     1 CellRange=     0.0.
 One-electron integrals computed using PRISM.
 One-electron integral symmetry used in STVInt
 NBasis=   370 RedAO= T EigKep=  5.67D-06  NBF=   370
 NBsUse=   370 1.00D-06 EigRej= -1.00D+00 NBFU=   370
 Precomputing XC quadrature grid using
 IXCGrd= 4 IRadAn=           5 IRanWt=          -1 IRanGd=           0 AccXCQ= 0.00D+00.
 Generated NRdTot=       0 NPtTot=           0 NUsed=           0 NTot=          32
 NSgBfM=   381   381   381   381   381 MxSgAt=    27 MxSgA2=    27.
 Leave Link  302 at Thu Jan  5 10:57:49 2023, MaxMem=  1342177280 cpu:              18.2 elap:               0.4
 (Enter /shared/gaussian/g16.b01/AVX2/g16/l303.exe)
 DipDrv:  MaxL=1.
 Leave Link  303 at Thu Jan  5 10:57:49 2023, MaxMem=  1342177280 cpu:               2.5 elap:               0.1
 (Enter /shared/gaussian/g16.b01/AVX2/g16/l401.exe)
 ExpMin= 4.38D-02 ExpMax= 8.59D+03 ExpMxC= 1.30D+03 IAcc=3 IRadAn=         5 AccDes= 0.00D+00
 Harris functional with IExCor=20419 and IRadAn=       5 diagonalized for initial guess.
 HarFok:  IExCor=20419 AccDes= 0.00D+00 IRadAn=         5 IDoV= 1 UseB2=F ITyADJ=14
 ICtDFT=  3500011 ScaDFX=  1.000000  1.000000  1.000000  1.000000
 FoFCou: FMM=F IPFlag=           0 FMFlag=      100000 FMFlg1=           0
         NFxFlg=           0 DoJE=T BraDBF=F KetDBF=T FulRan=T
         wScrn=  0.000000 ICntrl=       500 IOpCl=  0 I1Cent=   200000004 NGrid=           0
         NMat0=    1 NMatS0=      1 NMatT0=    0 NMatD0=    1 NMtDS0=    0 NMtDT0=    0
 Petite list used in FoFCou.
 Harris En= -733.394145145724    
 JPrj=0 DoOrth=F DoCkMO=F.
 Leave Link  401 at Thu Jan  5 10:57:49 2023, MaxMem=  1342177280 cpu:              26.6 elap:               0.6
 (Enter /shared/gaussian/g16.b01/AVX2/g16/l502.exe)
 Integral symmetry usage will be decided dynamically.
 Closed shell SCF:
 Using DIIS extrapolation, IDIIS=  1040.
 NGot=  1342177280 LenX=  1341860947 LenY=  1341713817
 Requested convergence on RMS density matrix=1.00D-08 within 128 cycles.
 Requested convergence on MAX density matrix=1.00D-06.
 Requested convergence on             energy=1.00D-06.
 No special actions if energy rises.
 Fock matrices will be formed incrementally for  20 cycles.

 Cycle   1  Pass 1  IDiag  1:
 FoFJK:  IHMeth= 1 ICntrl=       0 DoSepK=T KAlg= 0 I1Cent=           0 FoldK=F
 IRaf=         1 NMat=       1 IRICut=       1 DoRegI=T DoRafI=F ISym2E= 0 IDoP0=0 IntGTp=1.
 FoFCou: FMM=F IPFlag=           0 FMFlag=      100000 FMFlg1=           0
         NFxFlg=           0 DoJE=T BraDBF=F KetDBF=F FulRan=T
         wScrn=  0.000000 ICntrl=       500 IOpCl=  0 I1Cent=           0 NGrid=           0
         NMat0=    1 NMatS0=      1 NMatT0=    0 NMatD0=    1 NMtDS0=    0 NMtDT0=    0
 Symmetry not used in FoFCou.
 Inv3:  Mode=1 IEnd=    15828627.
 Iteration    1 A*A^-1 deviation from unit magnitude is 4.00D-15 for   1400.
 Iteration    1 A*A^-1 deviation from orthogonality  is 2.76D-15 for   1662    693.
 Iteration    1 A^-1*A deviation from unit magnitude is 3.55D-15 for   1400.
 Iteration    1 A^-1*A deviation from orthogonality  is 1.67D-15 for   2195   1816.
 E= -759.730261120078    
 DIIS: error= 4.88D-02 at cycle   1 NSaved=   1.
 NSaved= 1 IEnMin= 1 EnMin= -759.730261120078     IErMin= 1 ErrMin= 4.88D-02
 ErrMax= 4.88D-02  0.00D+00 EMaxC= 1.00D-01 BMatC= 1.14D+00 BMatP= 1.14D+00
 IDIUse=3 WtCom= 5.12D-01 WtEn= 4.88D-01
 Coeff-Com:  0.100D+01
 Coeff-En:   0.100D+01
 Coeff:      0.100D+01
 Gap=     0.364 Goal=   None    Shift=    0.000
 GapD=    0.364 DampG=1.000 DampE=0.500 DampFc=0.5000 IDamp=-1.
 Damping current iteration by 5.00D-01
 RMSDP=8.90D-03 MaxDP=1.52D+00              OVMax= 1.30D-01

 Cycle   2  Pass 1  IDiag  1:
 RMSU=  2.96D-03    CP:  8.61D-01
 E= -759.808762510504     Delta-E=       -0.078501390426 Rises=F Damp=T
 DIIS: error= 2.32D-02 at cycle   2 NSaved=   2.
 NSaved= 2 IEnMin= 2 EnMin= -759.808762510504     IErMin= 2 ErrMin= 2.32D-02
 ErrMax= 2.32D-02  0.00D+00 EMaxC= 1.00D-01 BMatC= 2.38D-01 BMatP= 1.14D+00
 IDIUse=3 WtCom= 7.68D-01 WtEn= 2.32D-01
 Coeff-Com: -0.679D+00 0.168D+01
 Coeff-En:   0.000D+00 0.100D+01
 Coeff:     -0.521D+00 0.152D+01
 Gap=     0.337 Goal=   None    Shift=    0.000
 RMSDP=4.38D-03 MaxDP=5.98D-01 DE=-7.85D-02 OVMax= 1.11D-01

 Cycle   3  Pass 1  IDiag  1:
 RMSU=  1.89D-03    CP:  7.15D-01  1.63D+00
 E= -759.856664476581     Delta-E=       -0.047901966077 Rises=F Damp=F
 DIIS: error= 1.09D-02 at cycle   3 NSaved=   3.
 NSaved= 3 IEnMin= 3 EnMin= -759.856664476581     IErMin= 3 ErrMin= 1.09D-02
 ErrMax= 1.09D-02  0.00D+00 EMaxC= 1.00D-01 BMatC= 3.92D-02 BMatP= 2.38D-01
 IDIUse=3 WtCom= 8.91D-01 WtEn= 1.09D-01
 Coeff-Com: -0.361D+00 0.779D+00 0.582D+00
 Coeff-En:   0.000D+00 0.000D+00 0.100D+01
 Coeff:     -0.322D+00 0.694D+00 0.628D+00
 Gap=     0.302 Goal=   None    Shift=    0.000
 RMSDP=1.12D-03 MaxDP=1.09D-01 DE=-4.79D-02 OVMax= 5.80D-02

 Cycle   4  Pass 1  IDiag  1:
 RMSU=  4.69D-04    CP:  7.10D-01  1.88D+00  6.44D-01
 E= -759.887069151473     Delta-E=       -0.030404674893 Rises=F Damp=F
 DIIS: error= 3.25D-03 at cycle   4 NSaved=   4.
 NSaved= 4 IEnMin= 4 EnMin= -759.887069151473     IErMin= 4 ErrMin= 3.25D-03
 ErrMax= 3.25D-03  0.00D+00 EMaxC= 1.00D-01 BMatC= 3.97D-03 BMatP= 3.92D-02
 IDIUse=3 WtCom= 9.68D-01 WtEn= 3.25D-02
 Coeff-Com: -0.173D+00 0.368D+00 0.363D+00 0.443D+00
 Coeff-En:   0.000D+00 0.000D+00 0.000D+00 0.100D+01
 Coeff:     -0.168D+00 0.356D+00 0.351D+00 0.461D+00
 Gap=     0.298 Goal=   None    Shift=    0.000
 RMSDP=3.78D-04 MaxDP=4.64D-02 DE=-3.04D-02 OVMax= 1.29D-02

 Cycle   5  Pass 1  IDiag  1:
 RMSU=  1.59D-04    CP:  7.00D-01  1.86D+00  7.49D-01  6.72D-01
 E= -759.889873592669     Delta-E=       -0.002804441196 Rises=F Damp=F
 DIIS: error= 5.82D-04 at cycle   5 NSaved=   5.
 NSaved= 5 IEnMin= 5 EnMin= -759.889873592669     IErMin= 5 ErrMin= 5.82D-04
 ErrMax= 5.82D-04  0.00D+00 EMaxC= 1.00D-01 BMatC= 8.06D-05 BMatP= 3.97D-03
 IDIUse=3 WtCom= 9.94D-01 WtEn= 5.82D-03
 Coeff-Com: -0.358D-01 0.750D-01 0.902D-01 0.184D+00 0.687D+00
 Coeff-En:   0.000D+00 0.000D+00 0.000D+00 0.000D+00 0.100D+01
 Coeff:     -0.356D-01 0.746D-01 0.897D-01 0.183D+00 0.688D+00
 Gap=     0.298 Goal=   None    Shift=    0.000
 RMSDP=8.96D-05 MaxDP=7.97D-03 DE=-2.80D-03 OVMax= 3.91D-03

 Cycle   6  Pass 1  IDiag  1:
 RMSU=  4.29D-05    CP:  6.99D-01  1.88D+00  7.57D-01  7.74D-01  9.50D-01
 E= -759.889938452541     Delta-E=       -0.000064859872 Rises=F Damp=F
 DIIS: error= 2.69D-04 at cycle   6 NSaved=   6.
 NSaved= 6 IEnMin= 6 EnMin= -759.889938452541     IErMin= 6 ErrMin= 2.69D-04
 ErrMax= 2.69D-04  0.00D+00 EMaxC= 1.00D-01 BMatC= 1.44D-05 BMatP= 8.06D-05
 IDIUse=3 WtCom= 9.97D-01 WtEn= 2.69D-03
 Coeff-Com:  0.128D-01-0.275D-01-0.196D-01 0.875D-03 0.328D+00 0.705D+00
 Coeff-En:   0.000D+00 0.000D+00 0.000D+00 0.000D+00 0.000D+00 0.100D+01
 Coeff:      0.128D-01-0.275D-01-0.196D-01 0.873D-03 0.327D+00 0.706D+00
 Gap=     0.299 Goal=   None    Shift=    0.000
 RMSDP=4.68D-05 MaxDP=5.90D-03 DE=-6.49D-05 OVMax= 2.09D-03

 Cycle   7  Pass 1  IDiag  1:
 RMSU=  1.54D-05    CP:  6.97D-01  1.88D+00  7.66D-01  7.86D-01  1.06D+00
                    CP:  9.39D-01
 E= -759.889954419047     Delta-E=       -0.000015966506 Rises=F Damp=F
 DIIS: error= 6.74D-05 at cycle   7 NSaved=   7.
 NSaved= 7 IEnMin= 7 EnMin= -759.889954419047     IErMin= 7 ErrMin= 6.74D-05
 ErrMax= 6.74D-05  0.00D+00 EMaxC= 1.00D-01 BMatC= 1.54D-06 BMatP= 1.44D-05
 IDIUse=1 WtCom= 1.00D+00 WtEn= 0.00D+00
 Coeff-Com:  0.926D-02-0.196D-01-0.184D-01-0.261D-01 0.504D-01 0.276D+00
 Coeff-Com:  0.729D+00
 Coeff:      0.926D-02-0.196D-01-0.184D-01-0.261D-01 0.504D-01 0.276D+00
 Coeff:      0.729D+00
 Gap=     0.299 Goal=   None    Shift=    0.000
 RMSDP=1.34D-05 MaxDP=1.65D-03 DE=-1.60D-05 OVMax= 6.09D-04

 Cycle   8  Pass 1  IDiag  1:
 RMSU=  5.60D-06    CP:  6.97D-01  1.88D+00  7.68D-01  7.91D-01  1.09D+00
                    CP:  1.01D+00  1.09D+00
 E= -759.889956450729     Delta-E=       -0.000002031682 Rises=F Damp=F
 DIIS: error= 3.82D-05 at cycle   8 NSaved=   8.
 NSaved= 8 IEnMin= 8 EnMin= -759.889956450729     IErMin= 8 ErrMin= 3.82D-05
 ErrMax= 3.82D-05  0.00D+00 EMaxC= 1.00D-01 BMatC= 2.66D-07 BMatP= 1.54D-06
 IDIUse=1 WtCom= 1.00D+00 WtEn= 0.00D+00
 Coeff-Com:  0.142D-02-0.295D-02-0.405D-02-0.132D-01-0.335D-01 0.163D-02
 Coeff-Com:  0.308D+00 0.743D+00
 Coeff:      0.142D-02-0.295D-02-0.405D-02-0.132D-01-0.335D-01 0.163D-02
 Coeff:      0.308D+00 0.743D+00
 Gap=     0.299 Goal=   None    Shift=    0.000
 RMSDP=6.31D-06 MaxDP=6.99D-04 DE=-2.03D-06 OVMax= 4.39D-04

 Cycle   9  Pass 1  IDiag  1:
 RMSU=  3.08D-06    CP:  6.97D-01  1.88D+00  7.69D-01  7.91D-01  1.11D+00
                    CP:  1.03D+00  1.25D+00  1.05D+00
 E= -759.889956828586     Delta-E=       -0.000000377857 Rises=F Damp=F
 DIIS: error= 1.65D-05 at cycle   9 NSaved=   9.
 NSaved= 9 IEnMin= 9 EnMin= -759.889956828586     IErMin= 9 ErrMin= 1.65D-05
 ErrMax= 1.65D-05  0.00D+00 EMaxC= 1.00D-01 BMatC= 3.86D-08 BMatP= 2.66D-07
 IDIUse=1 WtCom= 1.00D+00 WtEn= 0.00D+00
 Coeff-Com: -0.101D-02 0.215D-02 0.150D-02-0.157D-02-0.186D-01-0.393D-01
 Coeff-Com:  0.589D-02 0.303D+00 0.748D+00
 Coeff:     -0.101D-02 0.215D-02 0.150D-02-0.157D-02-0.186D-01-0.393D-01
 Coeff:      0.589D-02 0.303D+00 0.748D+00
 Gap=     0.299 Goal=   None    Shift=    0.000
 RMSDP=1.94D-06 MaxDP=2.05D-04 DE=-3.78D-07 OVMax= 1.92D-04

 Cycle  10  Pass 1  IDiag  1:
 RMSU=  8.99D-07    CP:  6.97D-01  1.88D+00  7.69D-01  7.89D-01  1.11D+00
                    CP:  1.04D+00  1.28D+00  1.19D+00  1.09D+00
 E= -759.889956882090     Delta-E=       -0.000000053505 Rises=F Damp=F
 DIIS: error= 4.91D-06 at cycle  10 NSaved=  10.
 NSaved=10 IEnMin=10 EnMin= -759.889956882090     IErMin=10 ErrMin= 4.91D-06
 ErrMax= 4.91D-06  0.00D+00 EMaxC= 1.00D-01 BMatC= 8.35D-09 BMatP= 3.86D-08
 IDIUse=1 WtCom= 1.00D+00 WtEn= 0.00D+00
 Coeff-Com: -0.619D-03 0.131D-02 0.119D-02 0.108D-02-0.266D-02-0.186D-01
 Coeff-Com: -0.559D-01 0.123D-01 0.369D+00 0.693D+00
 Coeff:     -0.619D-03 0.131D-02 0.119D-02 0.108D-02-0.266D-02-0.186D-01
 Coeff:     -0.559D-01 0.123D-01 0.369D+00 0.693D+00
 Gap=     0.299 Goal=   None    Shift=    0.000
 RMSDP=8.10D-07 MaxDP=4.70D-05 DE=-5.35D-08 OVMax= 5.53D-05

 Cycle  11  Pass 1  IDiag  1:
 RMSU=  3.73D-07    CP:  6.97D-01  1.88D+00  7.69D-01  7.89D-01  1.12D+00
                    CP:  1.04D+00  1.31D+00  1.22D+00  1.22D+00  9.87D-01
 E= -759.889956892232     Delta-E=       -0.000000010142 Rises=F Damp=F
 DIIS: error= 2.19D-06 at cycle  11 NSaved=  11.
 NSaved=11 IEnMin=11 EnMin= -759.889956892232     IErMin=11 ErrMin= 2.19D-06
 ErrMax= 2.19D-06  0.00D+00 EMaxC= 1.00D-01 BMatC= 4.05D-10 BMatP= 8.35D-09
 IDIUse=1 WtCom= 1.00D+00 WtEn= 0.00D+00
 Coeff-Com: -0.105D-03 0.220D-03 0.250D-03 0.456D-03 0.932D-03-0.269D-02
 Coeff-Com: -0.220D-01-0.183D-01 0.757D-01 0.211D+00 0.754D+00
 Coeff:     -0.105D-03 0.220D-03 0.250D-03 0.456D-03 0.932D-03-0.269D-02
 Coeff:     -0.220D-01-0.183D-01 0.757D-01 0.211D+00 0.754D+00
 Gap=     0.299 Goal=   None    Shift=    0.000
 RMSDP=2.30D-07 MaxDP=2.07D-05 DE=-1.01D-08 OVMax= 2.20D-05

 Cycle  12  Pass 1  IDiag  1:
 RMSU=  1.06D-07    CP:  6.97D-01  1.88D+00  7.69D-01  7.88D-01  1.12D+00
                    CP:  1.04D+00  1.31D+00  1.22D+00  1.25D+00  1.05D+00
                    CP:  1.11D+00
 E= -759.889956892850     Delta-E=       -0.000000000618 Rises=F Damp=F
 DIIS: error= 5.08D-07 at cycle  12 NSaved=  12.
 NSaved=12 IEnMin=12 EnMin= -759.889956892850     IErMin=12 ErrMin= 5.08D-07
 ErrMax= 5.08D-07  0.00D+00 EMaxC= 1.00D-01 BMatC= 1.19D-10 BMatP= 4.05D-10
 IDIUse=1 WtCom= 1.00D+00 WtEn= 0.00D+00
 Coeff-Com:  0.429D-04-0.919D-04-0.549D-04 0.730D-04 0.903D-03 0.190D-02
 Coeff-Com: -0.154D-02-0.948D-02-0.288D-01-0.426D-01 0.340D+00 0.739D+00
 Coeff:      0.429D-04-0.919D-04-0.549D-04 0.730D-04 0.903D-03 0.190D-02
 Coeff:     -0.154D-02-0.948D-02-0.288D-01-0.426D-01 0.340D+00 0.739D+00
 Gap=     0.299 Goal=   None    Shift=    0.000
 RMSDP=1.00D-07 MaxDP=7.02D-06 DE=-6.18D-10 OVMax= 6.95D-06

 Cycle  13  Pass 1  IDiag  1:
 RMSU=  4.10D-08    CP:  6.97D-01  1.88D+00  7.69D-01  7.88D-01  1.12D+00
                    CP:  1.04D+00  1.31D+00  1.23D+00  1.27D+00  1.07D+00
                    CP:  1.23D+00  1.12D+00
 E= -759.889956893004     Delta-E=       -0.000000000154 Rises=F Damp=F
 DIIS: error= 1.89D-07 at cycle  13 NSaved=  13.
 NSaved=13 IEnMin=13 EnMin= -759.889956893004     IErMin=13 ErrMin= 1.89D-07
 ErrMax= 1.89D-07  0.00D+00 EMaxC= 1.00D-01 BMatC= 5.51D-12 BMatP= 1.19D-10
 IDIUse=1 WtCom= 1.00D+00 WtEn= 0.00D+00
 Coeff-Com:  0.205D-04-0.434D-04-0.367D-04-0.259D-04 0.127D-03 0.770D-03
 Coeff-Com:  0.160D-02-0.111D-03-0.145D-01-0.330D-01 0.235D-01 0.162D+00
 Coeff-Com:  0.860D+00
 Coeff:      0.205D-04-0.434D-04-0.367D-04-0.259D-04 0.127D-03 0.770D-03
 Coeff:      0.160D-02-0.111D-03-0.145D-01-0.330D-01 0.235D-01 0.162D+00
 Coeff:      0.860D+00
 Gap=     0.299 Goal=   None    Shift=    0.000
 RMSDP=2.74D-08 MaxDP=2.20D-06 DE=-1.54D-10 OVMax= 2.48D-06

 Cycle  14  Pass 1  IDiag  1:
 RMSU=  1.49D-08    CP:  6.97D-01  1.88D+00  7.69D-01  7.88D-01  1.12D+00
                    CP:  1.04D+00  1.31D+00  1.23D+00  1.27D+00  1.08D+00
                    CP:  1.27D+00  1.17D+00  1.18D+00
 E= -759.889956893018     Delta-E=       -0.000000000014 Rises=F Damp=F
 DIIS: error= 9.01D-08 at cycle  14 NSaved=  14.
 NSaved=14 IEnMin=14 EnMin= -759.889956893018     IErMin=14 ErrMin= 9.01D-08
 ErrMax= 9.01D-08  0.00D+00 EMaxC= 1.00D-01 BMatC= 1.53D-12 BMatP= 5.51D-12
 IDIUse=1 WtCom= 1.00D+00 WtEn= 0.00D+00
 Coeff-Com:  0.264D-05-0.541D-05-0.790D-05-0.218D-04-0.787D-04 0.644D-04
 Coeff-Com:  0.828D-03 0.143D-02-0.165D-02-0.695D-02-0.371D-01-0.510D-01
 Coeff-Com:  0.368D+00 0.726D+00
 Coeff:      0.264D-05-0.541D-05-0.790D-05-0.218D-04-0.787D-04 0.644D-04
 Coeff:      0.828D-03 0.143D-02-0.165D-02-0.695D-02-0.371D-01-0.510D-01
 Coeff:      0.368D+00 0.726D+00
 Gap=     0.299 Goal=   None    Shift=    0.000
 RMSDP=9.56D-09 MaxDP=6.24D-07 DE=-1.36D-11 OVMax= 9.09D-07

 Error on total polarization charges =  0.01624
 SCF Done:  E(RCAM-B3LYP) =  -759.889956893     A.U. after   14 cycles
            NFock= 14  Conv=0.96D-08     -V/T= 2.0031
 KE= 7.575084107764D+02 PE=-3.525723961211D+03 EE= 1.137695371072D+03
 Leave Link  502 at Thu Jan  5 10:58:11 2023, MaxMem=  1342177280 cpu:            1026.7 elap:              21.4
 (Enter /shared/gaussian/g16.b01/AVX2/g16/l601.exe)
 Copying SCF densities to generalized density rwf, IOpCl= 0 IROHF=0.

 **********************************************************************

            Population analysis using the SCF Density.

 **********************************************************************

 Orbital symmetries:
       Occupied  (A) (A) (A) (A) (A) (A) (A) (A) (A) (A) (A) (A)
                 (A) (A) (A) (A) (A) (A) (A) (A) (A) (A) (A) (A)
                 (A) (A) (A) (A) (A) (A) (A) (A) (A) (A) (A) (A)
                 (A) (A) (A) (A) (A) (A) (A) (A) (A) (A) (A) (A)
                 (A) (A) (A) (A) (A)
       Virtual   (A) (A) (A) (A) (A) (A) (A) (A) (A) (A) (A) (A)
                 (A) (A) (A) (A) (A) (A) (A) (A) (A) (A) (A) (A)
                 (A) (A) (A) (A) (A) (A) (A) (A) (A) (A) (A) (A)
                 (A) (A) (A) (A) (A) (A) (A) (A) (A) (A) (A) (A)
                 (A) (A) (A) (A) (A) (A) (A) (A) (A) (A) (A) (A)
                 (A) (A) (A) (A) (A) (A) (A) (A) (A) (A) (A) (A)
                 (A) (A) (A) (A) (A) (A) (A) (A) (A) (A) (A) (A)
                 (A) (A) (A) (A) (A) (A) (A) (A) (A) (A) (A) (A)
                 (A) (A) (A) (A) (A) (A) (A) (A) (A) (A) (A) (A)
                 (A) (A) (A) (A) (A) (A) (A) (A) (A) (A) (A) (A)
                 (A) (A) (A) (A) (A) (A) (A) (A) (A) (A) (A) (A)
                 (A) (A) (A) (A) (A) (A) (A) (A) (A) (A) (A) (A)
                 (A) (A) (A) (A) (A) (A) (A) (A) (A) (A) (A) (A)
                 (A) (A) (A) (A) (A) (A) (A) (A) (A) (A) (A) (A)
                 (A) (A) (A) (A) (A) (A) (A) (A) (A) (A) (A) (A)
                 (A) (A) (A) (A) (A) (A) (A) (A) (A) (A) (A) (A)
                 (A) (A) (A) (A) (A) (A) (A) (A) (A) (A) (A) (A)
                 (A) (A) (A) (A) (A) (A) (A) (A) (A) (A) (A) (A)
                 (A) (A) (A) (A) (A) (A) (A) (A) (A) (A) (A) (A)
                 (A) (A) (A) (A) (A) (A) (A) (A) (A) (A) (A) (A)
                 (A) (A) (A) (A) (A) (A) (A) (A) (A) (A) (A) (A)
                 (A) (A) (A) (A) (A) (A) (A) (A) (A) (A) (A) (A)
                 (A) (A) (A) (A) (A) (A) (A) (A) (A) (A) (A) (A)
                 (A) (A) (A) (A) (A) (A) (A) (A) (A) (A) (A) (A)
                 (A) (A) (A) (A) (A) (A) (A) (A) (A) (A) (A) (A)
                 (A) (A) (A) (A) (A) (A) (A) (A) (A) (A) (A) (A)
                 (A) (A) (A) (A) (A)
 The electronic state is 1-A.
 Alpha  occ. eigenvalues --  -19.21007 -19.20757 -19.20672 -19.20001 -19.19681
 Alpha  occ. eigenvalues --  -19.17809 -14.45752 -14.45216 -10.41994 -10.38735
 Alpha  occ. eigenvalues --  -10.32515 -10.27525 -10.24762  -1.18394  -1.15132
 Alpha  occ. eigenvalues --   -1.11238  -1.10390  -1.09643  -1.07896  -1.07311
 Alpha  occ. eigenvalues --   -1.02517  -0.90998  -0.80271  -0.76933  -0.75256
 Alpha  occ. eigenvalues --   -0.65666  -0.65376  -0.62467  -0.61663  -0.61279
 Alpha  occ. eigenvalues --   -0.60080  -0.58858  -0.57470  -0.55989  -0.53828
 Alpha  occ. eigenvalues --   -0.51747  -0.50932  -0.50028  -0.48222  -0.47923
 Alpha  occ. eigenvalues --   -0.47442  -0.46652  -0.45919  -0.44369  -0.43484
 Alpha  occ. eigenvalues --   -0.41140  -0.40504  -0.39885  -0.38470  -0.37534
 Alpha  occ. eigenvalues --   -0.37278  -0.36350  -0.30963
 Alpha virt. eigenvalues --   -0.01091   0.02552   0.03277   0.03801   0.04276
 Alpha virt. eigenvalues --    0.06010   0.06441   0.07067   0.07344   0.08908
 Alpha virt. eigenvalues --    0.09439   0.09827   0.10364   0.11526   0.12888
 Alpha virt. eigenvalues --    0.13237   0.13940   0.14486   0.14837   0.15462
 Alpha virt. eigenvalues --    0.16492   0.17198   0.17405   0.17491   0.18399
 Alpha virt. eigenvalues --    0.18805   0.19312   0.19868   0.20039   0.20581
 Alpha virt. eigenvalues --    0.20718   0.21560   0.21697   0.22187   0.22589
 Alpha virt. eigenvalues --    0.23544   0.23799   0.24087   0.24255   0.25133
 Alpha virt. eigenvalues --    0.25558   0.25707   0.26234   0.26826   0.27013
 Alpha virt. eigenvalues --    0.27261   0.28761   0.29000   0.29190   0.29406
 Alpha virt. eigenvalues --    0.29630   0.30238   0.30771   0.31426   0.31938
 Alpha virt. eigenvalues --    0.32047   0.32668   0.32902   0.33447   0.34131
 Alpha virt. eigenvalues --    0.35205   0.35516   0.37665   0.39028   0.39300
 Alpha virt. eigenvalues --    0.41143   0.42127   0.42549   0.43147   0.44571
 Alpha virt. eigenvalues --    0.45680   0.46840   0.47658   0.48095   0.50251
 Alpha virt. eigenvalues --    0.51662   0.53792   0.55259   0.57594   0.58083
 Alpha virt. eigenvalues --    0.58412   0.59878   0.61026   0.61273   0.61895
 Alpha virt. eigenvalues --    0.62417   0.63789   0.63955   0.65301   0.66132
 Alpha virt. eigenvalues --    0.67123   0.67857   0.68589   0.69458   0.71269
 Alpha virt. eigenvalues --    0.72235   0.73558   0.74447   0.75819   0.76661
 Alpha virt. eigenvalues --    0.78836   0.79817   0.81267   0.85430   0.87435
 Alpha virt. eigenvalues --    0.89660   0.90119   0.91546   0.92615   0.93844
 Alpha virt. eigenvalues --    0.95789   0.97591   0.99421   1.00905   1.02698
 Alpha virt. eigenvalues --    1.03196   1.03429   1.05676   1.06537   1.07783
 Alpha virt. eigenvalues --    1.08486   1.09382   1.10392   1.11143   1.11940
 Alpha virt. eigenvalues --    1.13485   1.14282   1.15605   1.16871   1.17425
 Alpha virt. eigenvalues --    1.18343   1.19480   1.20325   1.21201   1.23183
 Alpha virt. eigenvalues --    1.23631   1.24555   1.25175   1.26750   1.29167
 Alpha virt. eigenvalues --    1.30880   1.32785   1.34175   1.34620   1.36607
 Alpha virt. eigenvalues --    1.38014   1.39382   1.40752   1.42464   1.43507
 Alpha virt. eigenvalues --    1.43770   1.46852   1.48509   1.50708   1.51325
 Alpha virt. eigenvalues --    1.52230   1.53515   1.56217   1.57488   1.59192
 Alpha virt. eigenvalues --    1.60492   1.61061   1.62271   1.63258   1.63420
 Alpha virt. eigenvalues --    1.64464   1.65671   1.66542   1.67589   1.70003
 Alpha virt. eigenvalues --    1.72168   1.74184   1.75519   1.78006   1.78420
 Alpha virt. eigenvalues --    1.80175   1.81645   1.83535   1.83823   1.86440
 Alpha virt. eigenvalues --    1.87693   1.88741   1.91044   1.92526   1.98790
 Alpha virt. eigenvalues --    2.00399   2.04513   2.05498   2.08004   2.09306
 Alpha virt. eigenvalues --    2.09740   2.10035   2.12574   2.16630   2.18573
 Alpha virt. eigenvalues --    2.21760   2.23684   2.26903   2.29398   2.31822
 Alpha virt. eigenvalues --    2.33250   2.36555   2.36664   2.36713   2.41268
 Alpha virt. eigenvalues --    2.42246   2.44526   2.48762   2.50019   2.53413
 Alpha virt. eigenvalues --    2.55012   2.56809   2.58867   2.59501   2.61299
 Alpha virt. eigenvalues --    2.62396   2.64207   2.65652   2.67500   2.71006
 Alpha virt. eigenvalues --    2.71802   2.74210   2.76728   2.78629   2.79011
 Alpha virt. eigenvalues --    2.82347   2.83545   2.83751   2.86501   2.86784
 Alpha virt. eigenvalues --    2.89415   2.93357   2.96167   2.98687   2.99223
 Alpha virt. eigenvalues --    3.00363   3.01966   3.03872   3.06114   3.07425
 Alpha virt. eigenvalues --    3.09339   3.15079   3.16412   3.17612   3.19887
 Alpha virt. eigenvalues --    3.20472   3.21148   3.22517   3.23595   3.23936
 Alpha virt. eigenvalues --    3.29006   3.36673   3.37423   3.37886   3.39624
 Alpha virt. eigenvalues --    3.39947   3.40373   3.43734   3.45368   3.49163
 Alpha virt. eigenvalues --    3.54346   3.64525   3.66511   3.70264   3.71321
 Alpha virt. eigenvalues --    3.75687   3.77475   3.78348   3.80788   3.81751
 Alpha virt. eigenvalues --    3.86658   3.91113   3.92782   3.94532   3.96557
 Alpha virt. eigenvalues --    3.97177   4.00494   4.00629   4.02212   4.13172
 Alpha virt. eigenvalues --    4.30590   4.38866   4.78436   4.94088   4.95953
 Alpha virt. eigenvalues --    5.03871   5.08016   5.09320   5.10483   5.12536
 Alpha virt. eigenvalues --    5.14906   5.29083   5.34594   5.43253   5.45314
 Alpha virt. eigenvalues --    5.46475   5.47676   5.55509   5.69854   5.71711
 Alpha virt. eigenvalues --    5.74740   5.76742   5.87298   5.92812  23.74562
 Alpha virt. eigenvalues --   23.89508  23.94223  24.02669  24.22915  35.65680
 Alpha virt. eigenvalues --   35.69290  49.92723  49.93170  49.94826  49.96888
 Alpha virt. eigenvalues --   50.04086  50.09207
          Condensed to atoms (all electrons):
               1          2          3          4          5          6
     1  N    7.217435   0.215944  -0.152079   0.424665  -0.101905  -0.194807
     2  C    0.215944   5.077754   0.380909  -0.421799   0.393973  -0.427387
     3  N   -0.152079   0.380909   6.836425  -0.155166   0.051933   0.220917
     4  C    0.424665  -0.421799  -0.155166   9.015349  -1.442436  -1.309687
     5  C   -0.101905   0.393973   0.051933  -1.442436   9.276507  -2.452400
     6  C   -0.194807  -0.427387   0.220917  -1.309687  -2.452400   9.966514
     7  H    0.308500  -0.015844   0.006601   0.000338   0.016520  -0.027288
     8  O   -0.088296   0.378595  -0.105438   0.040606  -0.011903   0.016969
     9  H    0.003082  -0.026817   0.332996  -0.009305  -0.006861   0.005138
    10  H   -0.000320   0.020884  -0.037410   0.411977  -0.009139  -0.022616
    11  O   -0.092276   0.035217   0.001561  -0.041564  -0.132246   0.398755
    12  C   -0.050841  -0.093465   0.011750  -0.142686  -0.227273  -0.181788
    13  H   -0.000595   0.001129   0.000605  -0.037247   0.014691   0.035039
    14  H   -0.000281   0.001313   0.000558  -0.023671   0.034427   0.002782
    15  H   -0.000893   0.000779  -0.000377   0.036008  -0.135252  -0.033595
    16  O   -0.011751   0.029072   0.001103   0.002308  -0.015549  -0.019096
    17  H    0.008939  -0.012368   0.000780  -0.001820   0.002324   0.003155
    18  O   -0.002955  -0.013931   0.020387  -0.020314   0.020245   0.001570
    19  H    0.007656   0.002413  -0.000236  -0.010761   0.031770  -0.031964
    20  H   -0.000092  -0.002897  -0.000341   0.001290   0.027081  -0.019025
    21  H    0.006900  -0.003986  -0.000165  -0.000720   0.001492   0.000838
    22  O    0.010430  -0.005322  -0.002960  -0.005680   0.000892   0.008056
    23  H    0.003049  -0.006369  -0.000053  -0.000830   0.002859  -0.000485
    24  H    0.002664   0.004634  -0.006436   0.004650  -0.000124  -0.003737
    25  H    0.000054   0.004785  -0.000014  -0.002647   0.000030  -0.000385
    26  O   -0.006283   0.006520   0.000817   0.008464  -0.074058   0.063343
    27  H   -0.000817  -0.000833  -0.000023  -0.001473   0.003733   0.001733
               7          8          9         10         11         12
     1  N    0.308500  -0.088296   0.003082  -0.000320  -0.092276  -0.050841
     2  C   -0.015844   0.378595  -0.026817   0.020884   0.035217  -0.093465
     3  N    0.006601  -0.105438   0.332996  -0.037410   0.001561   0.011750
     4  C    0.000338   0.040606  -0.009305   0.411977  -0.041564  -0.142686
     5  C    0.016520  -0.011903  -0.006861  -0.009139  -0.132246  -0.227273
     6  C   -0.027288   0.016969   0.005138  -0.022616   0.398755  -0.181788
     7  H    0.276318   0.000678  -0.000080   0.000090   0.009587  -0.001327
     8  O    0.000678   8.226826  -0.000285  -0.000191   0.001788   0.006137
     9  H   -0.000080  -0.000285   0.301226  -0.004626   0.000009  -0.002904
    10  H    0.000090  -0.000191  -0.004626   0.455196  -0.000343  -0.002214
    11  O    0.009587   0.001788   0.000009  -0.000343   8.190735   0.043387
    12  C   -0.001327   0.006137  -0.002904  -0.002214   0.043387   6.006976
    13  H   -0.000004  -0.000015   0.000007   0.000084  -0.000290   0.351984
    14  H   -0.000001  -0.000025   0.000004   0.000076  -0.001751   0.351293
    15  H    0.000012  -0.000016  -0.000021   0.002000   0.002655   0.503936
    16  O   -0.011373   0.007243   0.000073  -0.000003  -0.003969   0.000333
    17  H    0.001793   0.023680  -0.000230  -0.000000  -0.000013   0.000353
    18  O    0.000117  -0.028699  -0.009045   0.001171   0.000032   0.001868
    19  H    0.000837  -0.000057  -0.000001   0.000001   0.057970   0.005541
    20  H    0.002068  -0.000042  -0.000003   0.000000   0.000727   0.000444
    21  H   -0.002828  -0.000845   0.000001  -0.000000   0.000019   0.000293
    22  O   -0.002708  -0.011756   0.000057  -0.000000   0.000268   0.000601
    23  H   -0.001726   0.002742   0.000000   0.000000  -0.000044   0.000114
    24  H    0.000006   0.041821  -0.000660  -0.000029  -0.000012   0.000167
    25  H   -0.000004   0.001499  -0.002178  -0.000039  -0.000001  -0.000035
    26  O    0.004038   0.000209   0.000004  -0.000001  -0.029672  -0.009194
    27  H   -0.000512  -0.000001   0.000000   0.000000  -0.000050   0.001419
              13         14         15         16         17         18
     1  N   -0.000595  -0.000281  -0.000893  -0.011751   0.008939  -0.002955
     2  C    0.001129   0.001313   0.000779   0.029072  -0.012368  -0.013931
     3  N    0.000605   0.000558  -0.000377   0.001103   0.000780   0.020387
     4  C   -0.037247  -0.023671   0.036008   0.002308  -0.001820  -0.020314
     5  C    0.014691   0.034427  -0.135252  -0.015549   0.002324   0.020245
     6  C    0.035039   0.002782  -0.033595  -0.019096   0.003155   0.001570
     7  H   -0.000004  -0.000001   0.000012  -0.011373   0.001793   0.000117
     8  O   -0.000015  -0.000025  -0.000016   0.007243   0.023680  -0.028699
     9  H    0.000007   0.000004  -0.000021   0.000073  -0.000230  -0.009045
    10  H    0.000084   0.000076   0.002000  -0.000003  -0.000000   0.001171
    11  O   -0.000290  -0.001751   0.002655  -0.003969  -0.000013   0.000032
    12  C    0.351984   0.351293   0.503936   0.000333   0.000353   0.001868
    13  H    0.522901  -0.032239  -0.023316   0.000005   0.000000  -0.000001
    14  H   -0.032239   0.521105  -0.021968  -0.000004  -0.000000  -0.000000
    15  H   -0.023316  -0.021968   0.512998  -0.000003  -0.000000   0.000003
    16  O    0.000005  -0.000004  -0.000003   8.179363   0.003614  -0.000025
    17  H    0.000000  -0.000000  -0.000000   0.003614   0.367231   0.000330
    18  O   -0.000001  -0.000000   0.000003  -0.000025   0.000330   7.971033
    19  H    0.000045  -0.000118   0.000016  -0.002629   0.000028  -0.000001
    20  H   -0.000004   0.000001   0.000000   0.279296  -0.000114  -0.000001
    21  H   -0.000001   0.000000   0.000000   0.303422  -0.000283  -0.000001
    22  O   -0.000000   0.000001  -0.000000  -0.005101   0.307099  -0.000022
    23  H    0.000000  -0.000000   0.000000  -0.013987  -0.024732  -0.000030
    24  H   -0.000000  -0.000000   0.000000   0.000047  -0.000266   0.311067
    25  H    0.000000  -0.000000  -0.000000   0.000001  -0.000007   0.327374
    26  O    0.000049   0.000022  -0.000008  -0.010474   0.000046   0.000002
    27  H   -0.000002   0.000009   0.000000   0.000134  -0.000003  -0.000000
              19         20         21         22         23         24
     1  N    0.007656  -0.000092   0.006900   0.010430   0.003049   0.002664
     2  C    0.002413  -0.002897  -0.003986  -0.005322  -0.006369   0.004634
     3  N   -0.000236  -0.000341  -0.000165  -0.002960  -0.000053  -0.006436
     4  C   -0.010761   0.001290  -0.000720  -0.005680  -0.000830   0.004650
     5  C    0.031770   0.027081   0.001492   0.000892   0.002859  -0.000124
     6  C   -0.031964  -0.019025   0.000838   0.008056  -0.000485  -0.003737
     7  H    0.000837   0.002068  -0.002828  -0.002708  -0.001726   0.000006
     8  O   -0.000057  -0.000042  -0.000845  -0.011756   0.002742   0.041821
     9  H   -0.000001  -0.000003   0.000001   0.000057   0.000000  -0.000660
    10  H    0.000001   0.000000  -0.000000  -0.000000   0.000000  -0.000029
    11  O    0.057970   0.000727   0.000019   0.000268  -0.000044  -0.000012
    12  C    0.005541   0.000444   0.000293   0.000601   0.000114   0.000167
    13  H    0.000045  -0.000004  -0.000001  -0.000000   0.000000  -0.000000
    14  H   -0.000118   0.000001   0.000000   0.000001  -0.000000  -0.000000
    15  H    0.000016   0.000000   0.000000  -0.000000   0.000000   0.000000
    16  O   -0.002629   0.279296   0.303422  -0.005101  -0.013987   0.000047
    17  H    0.000028  -0.000114  -0.000283   0.307099  -0.024732  -0.000266
    18  O   -0.000001  -0.000001  -0.000001  -0.000022  -0.000030   0.311067
    19  H    0.316030   0.006812   0.000160   0.000053   0.000293   0.000000
    20  H    0.006812   0.349032  -0.009759  -0.000609   0.002858   0.000003
    21  H    0.000160  -0.009759   0.396116  -0.001432   0.002703  -0.000001
    22  O    0.000053  -0.000609  -0.001432   8.057019   0.321133  -0.000078
    23  H    0.000293   0.002858   0.002703   0.321133   0.366302   0.000051
    24  H    0.000000   0.000003  -0.000001  -0.000078   0.000051   0.369081
    25  H   -0.000000   0.000000  -0.000000  -0.000003   0.000001  -0.016957
    26  O    0.263223  -0.033779   0.003758   0.000149  -0.002542  -0.000001
    27  H   -0.009174   0.002523   0.000167   0.000093   0.000088   0.000000
              25         26         27
     1  N    0.000054  -0.006283  -0.000817
     2  C    0.004785   0.006520  -0.000833
     3  N   -0.000014   0.000817  -0.000023
     4  C   -0.002647   0.008464  -0.001473
     5  C    0.000030  -0.074058   0.003733
     6  C   -0.000385   0.063343   0.001733
     7  H   -0.000004   0.004038  -0.000512
     8  O    0.001499   0.000209  -0.000001
     9  H   -0.002178   0.000004   0.000000
    10  H   -0.000039  -0.000001   0.000000
    11  O   -0.000001  -0.029672  -0.000050
    12  C   -0.000035  -0.009194   0.001419
    13  H    0.000000   0.000049  -0.000002
    14  H   -0.000000   0.000022   0.000009
    15  H   -0.000000  -0.000008   0.000000
    16  O    0.000001  -0.010474   0.000134
    17  H   -0.000007   0.000046  -0.000003
    18  O    0.327374   0.000002  -0.000000
    19  H   -0.000000   0.263223  -0.009174
    20  H    0.000000  -0.033779   0.002523
    21  H   -0.000000   0.003758   0.000167
    22  O   -0.000003   0.000149   0.000093
    23  H    0.000001  -0.002542   0.000088
    24  H   -0.016957  -0.000001   0.000000
    25  H    0.388939   0.000000  -0.000000
    26  O    0.000000   8.167305   0.307365
    27  H   -0.000000   0.307365   0.393253
 Mulliken charges:
               1
     1  N   -0.505128
     2  C    0.477100
     3  N   -0.406640
     4  C   -0.317846
     5  C    0.730668
     6  C   -0.000547
     7  H    0.436193
     8  O   -0.501222
     9  H    0.420421
    10  H    0.185453
    11  O   -0.440478
    12  C   -0.574869
    13  H    0.167174
    14  H    0.168467
    15  H    0.157041
    16  O   -0.712050
    17  H    0.320466
    18  O   -0.580173
    19  H    0.362094
    20  H    0.394533
    21  H    0.304152
    22  O   -0.670181
    23  H    0.348603
    24  H    0.294111
    25  H    0.299587
    26  O   -0.659300
    27  H    0.302372
 Sum of Mulliken charges =  -0.00000
 Mulliken charges with hydrogens summed into heavy atoms:
               1
     1  N   -0.068934
     2  C    0.477100
     3  N    0.013781
     4  C   -0.132393
     5  C    0.730668
     6  C   -0.000547
     8  O   -0.501222
    11  O   -0.440478
    12  C   -0.082187
    16  O   -0.013366
    18  O    0.013525
    22  O   -0.001112
    26  O    0.005165
 Electronic spatial extent (au):  <R**2>=           3637.3940
 Charge=             -0.0000 electrons
 Dipole moment (field-independent basis, Debye):
    X=              2.8217    Y=              7.7335    Z=             -2.5914  Tot=              8.6304
 Quadrupole moment (field-independent basis, Debye-Ang):
   XX=            -77.1361   YY=            -97.7811   ZZ=            -76.5348
   XY=             12.8235   XZ=            -11.9827   YZ=             12.8746
 Traceless Quadrupole moment (field-independent basis, Debye-Ang):
   XX=              6.6812   YY=            -13.9638   ZZ=              7.2826
   XY=             12.8235   XZ=            -11.9827   YZ=             12.8746
 Octapole moment (field-independent basis, Debye-Ang**2):
  XXX=             29.9971  YYY=            117.8102  ZZZ=            -10.3638  XYY=             12.8234
  XXY=            -13.5187  XXZ=            -16.1185  XZZ=            -15.9940  YZZ=             -9.3304
  YYZ=            -35.7504  XYZ=              1.6676
 Hexadecapole moment (field-independent basis, Debye-Ang**3):
 XXXX=          -2289.4328 YYYY=          -2478.5436 ZZZZ=           -128.7222 XXXY=             82.2900
 XXXZ=           -342.3027 YYYX=             49.0827 YYYZ=            150.3904 ZZZX=             -9.6548
 ZZZY=             31.0611 XXYY=           -675.0470 XXZZ=           -311.6881 YYZZ=           -389.8040
 XXYZ=             72.6705 YYXZ=             18.1606 ZZXY=              9.8275
 N-N= 8.706302224696D+02 E-N=-3.525723960065D+03  KE= 7.575084107764D+02
 No NMR shielding tensors so no spin-rotation constants.
 Leave Link  601 at Thu Jan  5 10:58:11 2023, MaxMem=  1342177280 cpu:               9.2 elap:               0.2
 (Enter /shared/gaussian/g16.b01/AVX2/g16/l701.exe)
 ... and contract with generalized density number  0.
 Compute integral first derivatives.
 D1PCM: PCM CHGder 1st derivatives, ID1Alg=3 FixD1E=F DoIter=F DoCFld=F I1PDM=0.
 GePol: Maximum number of non-zero 1st derivatives   =     267
 Leave Link  701 at Thu Jan  5 10:58:12 2023, MaxMem=  1342177280 cpu:              31.8 elap:               0.7
 (Enter /shared/gaussian/g16.b01/AVX2/g16/l702.exe)
 L702 exits ... SP integral derivatives will be done elsewhere.
 Leave Link  702 at Thu Jan  5 10:58:12 2023, MaxMem=  1342177280 cpu:               1.2 elap:               0.0
 (Enter /shared/gaussian/g16.b01/AVX2/g16/l703.exe)
 Integral derivatives from FoFJK, PRISM(SPDF).
 Compute integral first derivatives, UseDBF=F ICtDFT=           0.
 Calling FoFJK, ICntrl=      2127 FMM=F ISym2X=0 I1Cent= 0 IOpClX= 0 NMat=1 NMatS=1 NMatT=0.
 FoFJK:  IHMeth= 1 ICntrl=    2127 DoSepK=T KAlg= 0 I1Cent=           0 FoldK=F
 IRaf=         1 NMat=       1 IRICut=       1 DoRegI=T DoRafI=F ISym2E= 0 IDoP0=0 IntGTp=1.
 FoFCou: FMM=F IPFlag=           0 FMFlag=      100000 FMFlg1=         800
         NFxFlg=           0 DoJE=F BraDBF=F KetDBF=F FulRan=T
         wScrn=  0.000000 ICntrl=      2527 IOpCl=  0 I1Cent=           0 NGrid=           0
         NMat0=    1 NMatS0=      1 NMatT0=    0 NMatD0=    1 NMtDS0=    0 NMtDT0=    0
 Symmetry not used in FoFCou.
 Leave Link  703 at Thu Jan  5 10:58:15 2023, MaxMem=  1342177280 cpu:             179.8 elap:               3.6
 (Enter /shared/gaussian/g16.b01/AVX2/g16/l716.exe)
 Dipole        = 1.11013756D+00 3.04259238D+00-1.01955160D+00
 ***** Axes restored to original set *****
 -------------------------------------------------------------------
 Center     Atomic                   Forces (Hartrees/Bohr)
 Number     Number              X              Y              Z
 -------------------------------------------------------------------
      1        7           0.000834443    0.001787134    0.000617257
      2        6           0.001392306    0.000956104   -0.000108459
      3        7          -0.003252965   -0.004138850   -0.000716617
      4        6          -0.005394198    0.000427736   -0.000198586
      5        6           0.003100448   -0.000836744    0.000182114
      6        6          -0.001927639   -0.000134114   -0.000491546
      7        1          -0.000471451   -0.001014465   -0.000328701
      8        8          -0.001836264    0.004282268    0.001258027
      9        1           0.001253463    0.000550243    0.000516377
     10        1           0.000788561    0.000892619    0.000123495
     11        8           0.005372306   -0.002485406    0.000254119
     12        6          -0.000764878   -0.001064511   -0.000147734
     13        1          -0.000044288   -0.000025153   -0.000722106
     14        1          -0.000118182   -0.000171013    0.000691501
     15        1           0.000827770    0.000304249    0.000076404
     16        8          -0.000100235    0.001522242    0.000452046
     17        1           0.001668733    0.000347476    0.000005200
     18        8          -0.002053573    0.000329917   -0.001931671
     19        1          -0.000599891    0.000912286   -0.000337343
     20        1           0.000164155   -0.001315565   -0.000329773
     21        1           0.000039284   -0.000680555   -0.000278979
     22        8           0.000041754    0.000855046   -0.000669380
     23        1          -0.001581305    0.000055434   -0.000139494
     24        1           0.000051793   -0.001012127    0.000553352
     25        1           0.001257005   -0.000225551    0.000746947
     26        8           0.002718392   -0.000111421    0.001135174
     27        1          -0.001365542   -0.000007278   -0.000211626
 -------------------------------------------------------------------
 Cartesian Forces:  Max     0.005394198 RMS     0.001494585
 Leave Link  716 at Thu Jan  5 10:58:15 2023, MaxMem=  1342177280 cpu:               1.2 elap:               0.0
 (Enter /shared/gaussian/g16.b01/AVX2/g16/l103.exe)

 GradGradGradGradGradGradGradGradGradGradGradGradGradGradGradGradGradGrad
 Berny optimization.
 FormGI is forming the generalized inverse of G from B-inverse, IUseBI=4.
 Internal  Forces:  Max     0.005580742 RMS     0.000951957
 Search for a local minimum.
 Step number   1 out of a maximum of  160
 All quantities printed in internal units (Hartrees-Bohrs-Radians)
 RMS Force = .95196D-03 SwitMx=.10000D-02 MixMth= 2
 Mixed Optimization -- En-DIIS/RFO-DIIS
 Second derivative matrix not updated -- first step.
 ITU=  0
     Eigenvalues ---    0.00419   0.00543   0.00551   0.00742   0.00804
     Eigenvalues ---    0.00921   0.01074   0.01327   0.01510   0.01574
     Eigenvalues ---    0.01589   0.01862   0.02100   0.02162   0.02256
     Eigenvalues ---    0.02463   0.02519   0.02657   0.04181   0.04439
     Eigenvalues ---    0.04547   0.05085   0.05584   0.05804   0.05969
     Eigenvalues ---    0.06075   0.06174   0.06986   0.07069   0.07214
     Eigenvalues ---    0.07242   0.07296   0.07640   0.08331   0.08877
     Eigenvalues ---    0.09238   0.10115   0.12508   0.13768   0.14759
     Eigenvalues ---    0.16000   0.16000   0.16000   0.16000   0.18051
     Eigenvalues ---    0.19204   0.20489   0.21380   0.22117   0.22622
     Eigenvalues ---    0.24051   0.25000   0.32684   0.34681   0.34685
     Eigenvalues ---    0.34997   0.35977   0.35991   0.37423   0.40911
     Eigenvalues ---    0.42297   0.44483   0.48517   0.49269   0.50171
     Eigenvalues ---    0.50605   0.51101   0.51871   0.52616   0.53921
     Eigenvalues ---    0.54825   0.54875   0.54879   0.77740   0.87405
 RFO step:  Lambda=-4.70600128D-04 EMin= 4.18643318D-03
 Linear search not attempted -- first point.
 Iteration  1 RMS(Cart)=  0.00950220 RMS(Int)=  0.00015121
 Iteration  2 RMS(Cart)=  0.00016331 RMS(Int)=  0.00003610
 Iteration  3 RMS(Cart)=  0.00000002 RMS(Int)=  0.00003610
 ITry= 1 IFail=0 DXMaxC= 5.33D-02 DCOld= 1.00D+10 DXMaxT= 3.00D-01 DXLimC= 3.00D+00 Rises=F
 Variable       Old X    -DE/DX   Delta X   Delta X   Delta X     New X
                                 (Linear)    (Quad)   (Total)
    R1        2.59004  -0.00237   0.00000  -0.00600  -0.00602   2.58401
    R2        2.62784  -0.00309   0.00000  -0.00741  -0.00744   2.62041
    R3        1.94198   0.00080   0.00000   0.00181   0.00177   1.94375
    R4        2.58103  -0.00355   0.00000  -0.00800  -0.00801   2.57302
    R5        2.33389  -0.00348   0.00000  -0.00501  -0.00501   2.32888
    R6        2.58513   0.00036   0.00000   0.00094   0.00095   2.58608
    R7        1.92838   0.00075   0.00000   0.00209   0.00209   1.93048
    R8        2.55137  -0.00475   0.00000  -0.00807  -0.00806   2.54332
    R9        2.04095   0.00119   0.00000   0.00330   0.00330   2.04425
   R10        2.74102  -0.00178   0.00000  -0.00415  -0.00414   2.73688
   R11        2.82911  -0.00089   0.00000  -0.00272  -0.00272   2.82639
[...]
 Alpha  occ. eigenvalues --   -0.51778  -0.51004  -0.50075  -0.48221  -0.47884
 Alpha  occ. eigenvalues --   -0.47196  -0.46385  -0.45833  -0.44019  -0.43403
 Alpha  occ. eigenvalues --   -0.41109  -0.40342  -0.39903  -0.38465  -0.37390
 Alpha  occ. eigenvalues --   -0.37136  -0.36308  -0.31008
 Alpha virt. eigenvalues --   -0.00977   0.02635   0.03431   0.03887   0.04305
 Alpha virt. eigenvalues --    0.06050   0.06465   0.07121   0.07329   0.08949
 Alpha virt. eigenvalues --    0.09487   0.09852   0.10411   0.11410   0.12796
 Alpha virt. eigenvalues --    0.13282   0.13997   0.14531   0.14952   0.15583
 Alpha virt. eigenvalues --    0.16389   0.17048   0.17363   0.17570   0.18463
 Alpha virt. eigenvalues --    0.18931   0.19360   0.19964   0.20084   0.20523
 Alpha virt. eigenvalues --    0.20932   0.21493   0.21884   0.22202   0.22747
 Alpha virt. eigenvalues --    0.23706   0.23884   0.24145   0.24374   0.25177
 Alpha virt. eigenvalues --    0.25614   0.25656   0.26482   0.26846   0.27086
 Alpha virt. eigenvalues --    0.27741   0.28776   0.29301   0.29471   0.29635
 Alpha virt. eigenvalues --    0.29907   0.30739   0.30821   0.31500   0.32097
 Alpha virt. eigenvalues --    0.32507   0.32787   0.33101   0.33870   0.34339
 Alpha virt. eigenvalues --    0.35202   0.35756   0.37633   0.38841   0.39540
 Alpha virt. eigenvalues --    0.41402   0.41797   0.41985   0.42627   0.44687
 Alpha virt. eigenvalues --    0.45965   0.46141   0.47555   0.47848   0.50156
 Alpha virt. eigenvalues --    0.51726   0.53463   0.55453   0.57153   0.58160
 Alpha virt. eigenvalues --    0.58511   0.59752   0.60478   0.61152   0.62000
 Alpha virt. eigenvalues --    0.62222   0.63540   0.63714   0.65365   0.66168
 Alpha virt. eigenvalues --    0.67323   0.67735   0.68363   0.68924   0.70760
 Alpha virt. eigenvalues --    0.72291   0.73783   0.74432   0.75757   0.76857
 Alpha virt. eigenvalues --    0.78420   0.79401   0.81027   0.85235   0.87167
 Alpha virt. eigenvalues --    0.89953   0.90231   0.91518   0.92809   0.93682
 Alpha virt. eigenvalues --    0.95648   0.97528   0.99494   1.00983   1.02747
 Alpha virt. eigenvalues --    1.03266   1.04694   1.05506   1.06324   1.07870
 Alpha virt. eigenvalues --    1.08291   1.09251   1.10521   1.11383   1.11582
 Alpha virt. eigenvalues --    1.12982   1.14118   1.15632   1.16997   1.17204
 Alpha virt. eigenvalues --    1.18336   1.19156   1.19964   1.21201   1.23270
 Alpha virt. eigenvalues --    1.23817   1.24554   1.25296   1.28057   1.29518
 Alpha virt. eigenvalues --    1.31390   1.33168   1.35660   1.36462   1.38080
 Alpha virt. eigenvalues --    1.39027   1.40458   1.41215   1.43058   1.43816
 Alpha virt. eigenvalues --    1.44833   1.46076   1.48124   1.50861   1.51000
 Alpha virt. eigenvalues --    1.52508   1.53410   1.56104   1.57934   1.59257
 Alpha virt. eigenvalues --    1.61088   1.61725   1.62235   1.63182   1.63541
 Alpha virt. eigenvalues --    1.64720   1.66259   1.67322   1.67832   1.70123
 Alpha virt. eigenvalues --    1.72545   1.74633   1.75422   1.78410   1.79864
 Alpha virt. eigenvalues --    1.80485   1.81716   1.84074   1.84623   1.86539
 Alpha virt. eigenvalues --    1.87782   1.89005   1.91473   1.92868   1.99639
 Alpha virt. eigenvalues --    2.00705   2.04685   2.05651   2.08706   2.09150
 Alpha virt. eigenvalues --    2.09921   2.10667   2.12629   2.15891   2.18561
 Alpha virt. eigenvalues --    2.21952   2.23756   2.27425   2.29365   2.32876
 Alpha virt. eigenvalues --    2.33323   2.36583   2.36714   2.37654   2.41989
 Alpha virt. eigenvalues --    2.42889   2.44029   2.48322   2.50250   2.53560
 Alpha virt. eigenvalues --    2.54686   2.55459   2.57581   2.59417   2.60020
 Alpha virt. eigenvalues --    2.61430   2.62797   2.64553   2.65905   2.69255
 Alpha virt. eigenvalues --    2.72034   2.74419   2.76708   2.77857   2.79048
 Alpha virt. eigenvalues --    2.82091   2.83157   2.83867   2.86967   2.87117
 Alpha virt. eigenvalues --    2.89695   2.93241   2.96006   2.98225   2.99160
 Alpha virt. eigenvalues --    3.00501   3.02301   3.04342   3.05828   3.07799
 Alpha virt. eigenvalues --    3.09608   3.15015   3.17384   3.17616   3.20134
 Alpha virt. eigenvalues --    3.20916   3.21628   3.23343   3.24318   3.24555
 Alpha virt. eigenvalues --    3.31100   3.37176   3.37611   3.38341   3.39337
 Alpha virt. eigenvalues --    3.39892   3.40555   3.44406   3.45832   3.49743
 Alpha virt. eigenvalues --    3.55149   3.65229   3.67249   3.70797   3.71770
 Alpha virt. eigenvalues --    3.76063   3.77444   3.78578   3.81311   3.81749
 Alpha virt. eigenvalues --    3.86763   3.91199   3.92678   3.94564   3.96286
 Alpha virt. eigenvalues --    3.97812   4.00064   4.00936   4.02565   4.13585
 Alpha virt. eigenvalues --    4.30586   4.38847   4.79217   4.94322   4.96540
 Alpha virt. eigenvalues --    5.04104   5.06302   5.06881   5.10458   5.12516
 Alpha virt. eigenvalues --    5.14156   5.30227   5.35463   5.43624   5.45858
 Alpha virt. eigenvalues --    5.46085   5.47799   5.55201   5.70810   5.71550
 Alpha virt. eigenvalues --    5.75314   5.77387   5.87184   5.93051  23.74655
 Alpha virt. eigenvalues --   23.90412  23.95045  24.02603  24.24384  35.65899
 Alpha virt. eigenvalues --   35.69864  49.92697  49.93199  49.95303  49.97019
 Alpha virt. eigenvalues --   50.04577  50.09720
          Condensed to atoms (all electrons):
               1          2          3          4          5          6
     1  N    7.203117   0.228908  -0.147823   0.415501  -0.079843  -0.222818
     2  C    0.228908   5.065515   0.386379  -0.400893   0.394113  -0.453479
     3  N   -0.147823   0.386379   6.805578  -0.119708   0.037995   0.217435
     4  C    0.415501  -0.400893  -0.119708   8.912181  -1.311385  -1.442282
     5  C   -0.079843   0.394113   0.037995  -1.311385   9.002618  -2.241303
     6  C   -0.222818  -0.453479   0.217435  -1.442282  -2.241303   9.942735
     7  H    0.309563  -0.015183   0.006853  -0.001317   0.012904  -0.021564
     8  O   -0.086562   0.370088  -0.104987   0.031988  -0.003323   0.017212
     9  H    0.002309  -0.029785   0.343826  -0.014694  -0.003687   0.009600
    10  H   -0.000218   0.021694  -0.037535   0.413278  -0.010333  -0.021241
    11  O   -0.089059   0.035315   0.000425  -0.029799  -0.114163   0.362045
    12  C   -0.043548  -0.103349   0.003705  -0.080842  -0.314122  -0.164542
    13  H   -0.000685   0.001232   0.000726  -0.037330   0.015686   0.034722
    14  H   -0.000333   0.001247   0.000594  -0.025087   0.034743   0.004148
    15  H   -0.000760   0.000898  -0.000522   0.041386  -0.137464  -0.037166
    16  O   -0.007599   0.025662   0.000830   0.001432  -0.008930  -0.021254
    17  H    0.009206  -0.011848  -0.000010  -0.001945   0.002296   0.003457
    18  O   -0.001562   0.004200   0.019601  -0.035590   0.019558   0.000459
    19  H    0.008241   0.002286  -0.000174  -0.010369   0.011800  -0.011027
    20  H   -0.001276  -0.001796  -0.000287   0.002145   0.022285  -0.017309
    21  H    0.005777  -0.003715  -0.000175  -0.000802   0.001672   0.001197
    22  O    0.010636  -0.007008  -0.002824  -0.005447   0.002121   0.007619
    23  H    0.002629  -0.006746  -0.000059  -0.000881   0.003054  -0.000267
    24  H    0.002112   0.005137  -0.003746   0.004484  -0.000291  -0.002433
    25  H    0.000061   0.005509  -0.000331  -0.001349  -0.000613  -0.000215
    26  O   -0.007133   0.005013   0.000747   0.004061  -0.051482   0.051183
    27  H   -0.000861  -0.000685  -0.000011  -0.001355   0.002067   0.003377
               7          8          9         10         11         12
     1  N    0.309563  -0.086562   0.002309  -0.000218  -0.089059  -0.043548
     2  C   -0.015183   0.370088  -0.029785   0.021694   0.035315  -0.103349
     3  N    0.006853  -0.104987   0.343826  -0.037535   0.000425   0.003705
     4  C   -0.001317   0.031988  -0.014694   0.413278  -0.029799  -0.080842
     5  C    0.012904  -0.003323  -0.003687  -0.010333  -0.114163  -0.314122
     6  C   -0.021564   0.017212   0.009600  -0.021241   0.362045  -0.164542
     7  H    0.275717   0.000770  -0.000112   0.000088   0.009288  -0.001687
     8  O    0.000770   8.255868  -0.003113  -0.000245   0.001924   0.006998
     9  H   -0.000112  -0.003113   0.298896  -0.004266  -0.000003  -0.002764
    10  H    0.000088  -0.000245  -0.004266   0.455838  -0.000384  -0.004589
    11  O    0.009288   0.001924  -0.000003  -0.000384   8.206435   0.044690
    12  C   -0.001687   0.006998  -0.002764  -0.004589   0.044690   6.025086
    13  H    0.000003  -0.000013   0.000009   0.000084  -0.000406   0.351451
    14  H   -0.000004  -0.000026   0.000004   0.000075  -0.001909   0.350948
    15  H    0.000013  -0.000016  -0.000022   0.001994   0.002617   0.504094
    16  O   -0.017563   0.006794   0.000063  -0.000003  -0.004322   0.001459
    17  H    0.002359   0.023513  -0.000298  -0.000001  -0.000006   0.000362
    18  O    0.000129  -0.026390  -0.024769   0.000841   0.000024   0.001684
    19  H    0.001104  -0.000052  -0.000000   0.000001   0.045655   0.004381
    20  H    0.002931   0.000174  -0.000003   0.000000   0.001241   0.000003
    21  H   -0.002019  -0.000802   0.000000  -0.000000   0.000028   0.000295
    22  O   -0.002500  -0.013979   0.000080  -0.000000   0.000221   0.000685
    23  H   -0.001618   0.003581   0.000000   0.000000  -0.000067   0.000130
    24  H    0.000005   0.029253   0.000879  -0.000008  -0.000006   0.000156
    25  H   -0.000003  -0.000006  -0.001102  -0.000028  -0.000001  -0.000064
    26  O    0.002923   0.000067   0.000003  -0.000001  -0.032877  -0.006484
    27  H   -0.000339  -0.000000   0.000000   0.000000  -0.000308   0.001261
              13         14         15         16         17         18
     1  N   -0.000685  -0.000333  -0.000760  -0.007599   0.009206  -0.001562
     2  C    0.001232   0.001247   0.000898   0.025662  -0.011848   0.004200
     3  N    0.000726   0.000594  -0.000522   0.000830  -0.000010   0.019601
     4  C   -0.037330  -0.025087   0.041386   0.001432  -0.001945  -0.035590
     5  C    0.015686   0.034743  -0.137464  -0.008930   0.002296   0.019558
     6  C    0.034722   0.004148  -0.037166  -0.021254   0.003457   0.000459
     7  H    0.000003  -0.000004   0.000013  -0.017563   0.002359   0.000129
     8  O   -0.000013  -0.000026  -0.000016   0.006794   0.023513  -0.026390
     9  H    0.000009   0.000004  -0.000022   0.000063  -0.000298  -0.024769
    10  H    0.000084   0.000075   0.001994  -0.000003  -0.000001   0.000841
    11  O   -0.000406  -0.001909   0.002617  -0.004322  -0.000006   0.000024
    12  C    0.351451   0.350948   0.504094   0.001459   0.000362   0.001684
    13  H    0.522218  -0.031808  -0.023503   0.000005   0.000000  -0.000000
    14  H   -0.031808   0.520995  -0.022073  -0.000003  -0.000000  -0.000001
    15  H   -0.023503  -0.022073   0.513822  -0.000002  -0.000000   0.000002
    16  O    0.000005  -0.000003  -0.000002   8.171043   0.003655  -0.000020
    17  H    0.000000  -0.000000  -0.000000   0.003655   0.362825   0.000059
    18  O   -0.000000  -0.000001   0.000002  -0.000020   0.000059   8.048228
    19  H    0.000078  -0.000134   0.000015   0.000055   0.000030  -0.000001
    20  H   -0.000003   0.000001   0.000000   0.292949  -0.000215  -0.000001
    21  H   -0.000000   0.000000   0.000000   0.302015  -0.000213  -0.000001
    22  O   -0.000000   0.000001  -0.000000  -0.008303   0.304360  -0.000011
    23  H    0.000000  -0.000000   0.000000  -0.012645  -0.024001  -0.000033
    24  H   -0.000000  -0.000000   0.000000   0.000048   0.000076   0.288031
    25  H    0.000000  -0.000000  -0.000000   0.000000  -0.000000   0.299544
    26  O    0.000036   0.000031  -0.000008  -0.016793   0.000047   0.000002
    27  H   -0.000002   0.000010   0.000000   0.001213  -0.000003  -0.000000
              19         20         21         22         23         24
     1  N    0.008241  -0.001276   0.005777   0.010636   0.002629   0.002112
     2  C    0.002286  -0.001796  -0.003715  -0.007008  -0.006746   0.005137
     3  N   -0.000174  -0.000287  -0.000175  -0.002824  -0.000059  -0.003746
     4  C   -0.010369   0.002145  -0.000802  -0.005447  -0.000881   0.004484
     5  C    0.011800   0.022285   0.001672   0.002121   0.003054  -0.000291
     6  C   -0.011027  -0.017309   0.001197   0.007619  -0.000267  -0.002433
     7  H    0.001104   0.002931  -0.002019  -0.002500  -0.001618   0.000005
     8  O   -0.000052   0.000174  -0.000802  -0.013979   0.003581   0.029253
     9  H   -0.000000  -0.000003   0.000000   0.000080   0.000000   0.000879
    10  H    0.000001   0.000000  -0.000000  -0.000000   0.000000  -0.000008
    11  O    0.045655   0.001241   0.000028   0.000221  -0.000067  -0.000006
    12  C    0.004381   0.000003   0.000295   0.000685   0.000130   0.000156
    13  H    0.000078  -0.000003  -0.000000  -0.000000   0.000000  -0.000000
    14  H   -0.000134   0.000001   0.000000   0.000001  -0.000000  -0.000000
    15  H    0.000015   0.000000   0.000000  -0.000000   0.000000   0.000000
    16  O    0.000055   0.292949   0.302015  -0.008303  -0.012645   0.000048
    17  H    0.000030  -0.000215  -0.000213   0.304360  -0.024001   0.000076
    18  O   -0.000001  -0.000001  -0.000001  -0.000011  -0.000033   0.288031
    19  H    0.326394   0.004057   0.000220   0.000078   0.000268   0.000000
    20  H    0.004057   0.340037  -0.010330  -0.000762   0.002750   0.000003
    21  H    0.000220  -0.010330   0.395615  -0.001282   0.003033  -0.000000
    22  O    0.000078  -0.000762  -0.001282   8.076620   0.319454  -0.000186
    23  H    0.000268   0.002750   0.003033   0.319454   0.364011   0.000065
    24  H    0.000000   0.000003  -0.000000  -0.000186   0.000065   0.386468
    25  H   -0.000000   0.000000  -0.000000  -0.000003   0.000001  -0.006706
    26  O    0.263717  -0.033429   0.003573   0.000275  -0.002605  -0.000001
    27  H   -0.003945   0.001542   0.000034   0.000065   0.000071   0.000000
              25         26         27
     1  N    0.000061  -0.007133  -0.000861
     2  C    0.005509   0.005013  -0.000685
     3  N   -0.000331   0.000747  -0.000011
     4  C   -0.001349   0.004061  -0.001355
     5  C   -0.000613  -0.051482   0.002067
     6  C   -0.000215   0.051183   0.003377
     7  H   -0.000003   0.002923  -0.000339
     8  O   -0.000006   0.000067  -0.000000
     9  H   -0.001102   0.000003   0.000000
    10  H   -0.000028  -0.000001   0.000000
    11  O   -0.000001  -0.032877  -0.000308
    12  C   -0.000064  -0.006484   0.001261
    13  H    0.000000   0.000036  -0.000002
    14  H   -0.000000   0.000031   0.000010
    15  H   -0.000000  -0.000008   0.000000
    16  O    0.000000  -0.016793   0.001213
    17  H   -0.000000   0.000047  -0.000003
    18  O    0.299544   0.000002  -0.000000
    19  H   -0.000000   0.263717  -0.003945
    20  H    0.000000  -0.033429   0.001542
    21  H   -0.000000   0.003573   0.000034
    22  O   -0.000003   0.000275   0.000065
    23  H    0.000001  -0.002605   0.000071
    24  H   -0.006706  -0.000001   0.000000
    25  H    0.400127  -0.000000  -0.000000
    26  O   -0.000000   8.189518   0.293522
    27  H   -0.000000   0.293522   0.395661
 Mulliken charges:
               1
     1  N   -0.507981
     2  C    0.481290
     3  N   -0.406502
     4  C   -0.305382
     5  C    0.714028
     6  C    0.001709
     7  H    0.439260
     8  O   -0.508717
     9  H    0.428947
    10  H    0.184959
    11  O   -0.436596
    12  C   -0.575396
    13  H    0.167501
    14  H    0.168580
    15  H    0.156694
    16  O   -0.709786
    17  H    0.326296
    18  O   -0.593985
    19  H    0.357321
    20  H    0.395293
    21  H    0.305880
    22  O   -0.679911
    23  H    0.349875
    24  H    0.296660
    25  H    0.305179
    26  O   -0.663902
    27  H    0.308687
 Sum of Mulliken charges =  -0.00000
 Mulliken charges with hydrogens summed into heavy atoms:
               1
     1  N   -0.068721
     2  C    0.481290
     3  N    0.022445
     4  C   -0.120422
     5  C    0.714028
     6  C    0.001709
     8  O   -0.508717
    11  O   -0.436596
    12  C   -0.082620
    16  O   -0.008613
    18  O    0.007854
    22  O   -0.003740
    26  O    0.002105
 Electronic spatial extent (au):  <R**2>=           3603.8540
 Charge=              0.0000 electrons
 Dipole moment (field-independent basis, Debye):
    X=              2.5129    Y=              7.5757    Z=             -2.3615  Tot=              8.3236
 Quadrupole moment (field-independent basis, Debye-Ang):
   XX=            -69.9571   YY=            -95.7872   ZZ=            -77.4642
   XY=             10.9442   XZ=            -11.5466   YZ=             12.4380
 Traceless Quadrupole moment (field-independent basis, Debye-Ang):
   XX=             11.1124   YY=            -14.7177   ZZ=              3.6053
   XY=             10.9442   XZ=            -11.5466   YZ=             12.4380
 Octapole moment (field-independent basis, Debye-Ang**2):
  XXX=             38.0627  YYY=            115.8810  ZZZ=             -8.7485  XYY=             11.7237
  XXY=            -27.3617  XXZ=            -10.0328  XZZ=            -18.8671  YZZ=             -9.5722
  YYZ=            -35.3884  XYZ=              1.6529
 Hexadecapole moment (field-independent basis, Debye-Ang**3):
 XXXX=          -1949.8333 YYYY=          -2458.3424 ZZZZ=           -124.6954 XXXY=             -3.2569
 XXXZ=           -337.4431 YYYX=             64.1760 YYYZ=            145.6965 ZZZX=             -7.0010
 ZZZY=             29.0810 XXYY=           -633.1700 XXZZ=           -324.9562 YYZZ=           -384.1220
 XXYZ=             69.1007 YYXZ=             15.8716 ZZXY=             15.1574
 N-N= 8.738248578019D+02 E-N=-3.532496889084D+03  KE= 7.575792194022D+02
 No NMR shielding tensors so no spin-rotation constants.
 Leave Link  601 at Thu Jan  5 11:04:30 2023, MaxMem=  1342177280 cpu:               7.9 elap:               0.2
 (Enter /shared/gaussian/g16.b01/AVX2/g16/l9999.exe)
 1\1\GINC-BAKU1\FOpt\RCAM-B3LYP\6-311+G(d,p)\C5H14N2O6\ROOT\05-Jan-2023
 \0\\#p opt cam-b3lyp/6-311+G(d,p) scrf=(solvent=water,pcm) symm=loose\
 \Thymine solvated\\0,1\N,-0.231374442,-0.0232763736,-0.1898245034\C,1.
 0874402973,-0.3846689586,-0.1478745638\N,1.9621469971,0.6472121418,-0.
 0065243449\C,1.5598611,1.9528515265,0.0970160744\C,0.2646455273,2.3167
 677372,0.0732229811\C,-0.724478384,1.266356675,-0.0715644952\H,-0.9095
 099212,-0.7833618235,-0.337451523\O,1.4541307671,-1.5586976812,-0.2307
 533987\H,2.9503103514,0.3890608062,0.019527936\H,2.3618541536,2.671048
 4675,0.2035237053\O,-1.9376128157,1.4683823974,-0.0942689543\C,-0.2003
 175791,3.7336095256,0.1921685382\H,-0.7751307271,4.0310743643,-0.68726
 86046\H,-0.8497608104,3.8593453171,1.0609058769\H,0.6487250233,4.40897
 74955,0.2947408306\O,-2.2137461211,-2.1246999443,-0.5528642005\H,0.458
 8717889,-3.0622906959,0.3897231339\O,4.1939005528,-1.1086414163,0.0254
 247643\H,-3.3384672605,0.4200095453,0.1544237133\H,-2.9991672084,-1.61
 32565449,-0.2497087131\H,-2.4056860887,-2.418250544,-1.4497557713\O,-0
 .2079288344,-3.7077085742,0.6738313228\H,-1.0371926608,-3.3171607199,0
 .3553784261\H,3.3971643589,-1.6377183947,-0.1519972136\H,4.8365938808,
 -1.3439565705,-0.6507815656\O,-4.01521824,-0.2874999983,0.2013175788\H
 ,-4.418593705,-0.2319467596,1.0729379704\\Version=ES64L-G16RevB.01\Sta
 te=1-A\HF=-759.8908609\RMSD=3.648e-09\RMSF=2.600e-05\Dipole=1.0617199,
 2.9596952,-0.9148466\Quadrupole=8.602427,-11.4684643,2.8660373,7.71933
 96,-8.318064,9.3463408\PG=C01 [X(C5H14N2O6)]\\@


 TOM, TOM, THE BURGLAR'S SON
 STOLE A MACHINE AND AWAY HE RUN
 THE JOB WAS NEAT, BUT TOM GOT BEAT
 BY THE TIME HE GOT HOME IT WAS OBSOLETE.
 Job cpu time:       0 days  5 hours 18 minutes 35.7 seconds.
 Elapsed time:       0 days  0 hours  6 minutes 37.5 seconds.
 File lengths (MBytes):  RWF=    176 Int=      0 D2E=      0 Chk=     13 Scr=      1
 Normal termination of Gaussian 16 at Thu Jan  5 11:04:30 2023.
