 Entering Gaussian System, Link 0=/shared/gaussian/g16.b01/AVX2/g16/g16
 Initial command:
 /shared/gaussian/g16.b01/AVX2/g16/l1.exe "/scratch/marlene/SCRGAU.141921.Adenine6311-es2/Gau-14590.inp" -scrdir="/scratch/marlene/SCRGAU.141921.Adenine6311-es2/"
 Entering Link 1 = /shared/gaussian/g16.b01/AVX2/g16/l1.exe PID=     14591.
  
 Copyright (c) 1988-2017, Gaussian, Inc.  All Rights Reserved.
  
 This is part of the Gaussian(R) 16 program.  It is based on
 the Gaussian(R) 09 system (copyright 2009, Gaussian, Inc.),
 the Gaussian(R) 03 system (copyright 2003, Gaussian, Inc.),
 the Gaussian(R) 98 system (copyright 1998, Gaussian, Inc.),
 the Gaussian(R) 94 system (copyright 1995, Gaussian, Inc.),
 the Gaussian 92(TM) system (copyright 1992, Gaussian, Inc.),
 the Gaussian 90(TM) system (copyright 1990, Gaussian, Inc.),
 the Gaussian 88(TM) system (copyright 1988, Gaussian, Inc.),
 the Gaussian 86(TM) system (copyright 1986, Carnegie Mellon
 University), and the Gaussian 82(TM) system (copyright 1983,
 Carnegie Mellon University). Gaussian is a federally registered
 trademark of Gaussian, Inc.
  
 This software contains proprietary and confidential information,
 including trade secrets, belonging to Gaussian, Inc.
  
 This software is provided under written license and may be
 used, copied, transmitted, or stored only in accord with that
 written license.
  
 The following legend is applicable only to US Government
 contracts under FAR:
  
                    RESTRICTED RIGHTS LEGEND
  
 Use, reproduction and disclosure by the US Government is
 subject to restrictions as set forth in subparagraphs (a)
 and (c) of the Commercial Computer Software - Restricted
 Rights clause in FAR 52.227-19.
  
 Gaussian, Inc.
 340 Quinnipiac St., Bldg. 40, Wallingford CT 06492
  
  
 ---------------------------------------------------------------
 Warning -- This program may not be used in any manner that
 competes with the business of Gaussian, Inc. or will provide
 assistance to any competitor of Gaussian, Inc.  The licensee
 of this program is prohibited from giving any competitor of
 Gaussian, Inc. access to this program.  By using this program,
 the user acknowledges that Gaussian, Inc. is engaged in the
 business of creating and licensing software in the field of
 computational chemistry and represents and warrants to the
 licensee that it is not a competitor of Gaussian, Inc. and that
 it will not use this program in any manner prohibited above.
 ---------------------------------------------------------------
  

 Cite this work as:
 Gaussian 16, Revision B.01,
 M. J. Frisch, G. W. Trucks, H. B. Schlegel, G. E. Scuseria, 
 M. A. Robb, J. R. Cheeseman, G. Scalmani, V. Barone, 
 G. A. Petersson, H. Nakatsuji, X. Li, M. Caricato, A. V. Marenich, 
 J. Bloino, B. G. Janesko, R. Gomperts, B. Mennucci, H. P. Hratchian, 
 J. V. Ortiz, A. F. Izmaylov, J. L. Sonnenberg, D. Williams-Young, 
 F. Ding, F. Lipparini, F. Egidi, J. Goings, B. Peng, A. Petrone, 
 T. Henderson, D. Ranasinghe, V. G. Zakrzewski, J. Gao, N. Rega, 
 G. Zheng, W. Liang, M. Hada, M. Ehara, K. Toyota, R. Fukuda, 
 J. Hasegawa, M. Ishida, T. Nakajima, Y. Honda, O. Kitao, H. Nakai, 
 T. Vreven, K. Throssell, J. A. Montgomery, Jr., J. E. Peralta, 
 F. Ogliaro, M. J. Bearpark, J. J. Heyd, E. N. Brothers, K. N. Kudin, 
 V. N. Staroverov, T. A. Keith, R. Kobayashi, J. Normand, 
 K. Raghavachari, A. P. Rendell, J. C. Burant, S. S. Iyengar, 
 J. Tomasi, M. Cossi, J. M. Millam, M. Klene, C. Adamo, R. Cammi, 
 J. W. Ochterski, R. L. Martin, K. Morokuma, O. Farkas, 
 J. B. Foresman, and D. J. Fox, Gaussian, Inc., Wallingford CT, 2016.
 
 ******************************************
 Gaussian 16:  ES64L-G16RevB.01 20-Dec-2017
                22-Nov-2022 
 ******************************************
 %nprocshared=50
 Will use up to   50 processors via shared memory.
 %mem=8GB
 %chk=Adenine6311-es2.chk
 ----------------------------------------------------------------
 #p freq td=(nstates=10,root=2) cam-b3lyp/6-311+G(d,p) symm=loose
 ----------------------------------------------------------------
 1/10=4,30=1,38=1/1,3;
 2/12=2,17=4,18=3,40=1/2;
 3/5=4,6=6,7=111,11=9,25=1,30=1,71=2,74=-40,140=1/1,2,3,8;
 4//1;
 5/5=2,38=5,98=1/2;
 8/6=1,10=2,107=2,108=10/1;
 9/8=2,15=3,41=10,42=1,70=2/14;
 10/5=2004,20=4,28=2/2;
 11/6=1,8=1,12=-2,16=1,42=3/1,2,10;
 10/6=3,21=1,28=2/2,14;
 6/7=2,8=2,9=2,10=2/1;
 7/8=1,10=1,12=6,13=8,14=2,25=1,44=2/1,2,3,16;
 1/10=4,30=1/3;
 99//99;
 Leave Link    1 at Tue Nov 22 14:19:21 2022, MaxMem=  1073741824 cpu:               1.7 elap:               0.0
 (Enter /shared/gaussian/g16.b01/AVX2/g16/l101.exe)
 ----------------------------------
 Adenine TDDFT second excited state
 ----------------------------------
 Symbolic Z-matrix:
 Charge =  0 Multiplicity = 1
 C                     0.66456  -2.02182   0. 
 N                     1.65901  -1.12779   0. 
 C                     1.35389   0.17129   0. 
 C                     0.        0.54328   0. 
 C                    -0.91872  -0.49549   0. 
 N                    -0.64159  -1.79886   0. 
 H                     0.97354  -3.062     0. 
 N                     2.34828   1.08083   0. 
 H                     3.30166   0.76136   0. 
 H                     2.13742   2.06368   0. 
 N                    -0.6332    1.77042   0. 
 N                    -2.14267   0.12349   0. 
 C                    -1.89933   1.47659   0. 
 H                    -3.03835  -0.3378    0. 
 H                    -2.70539   2.19505   0. 
 
 ITRead=  0  0  0  0  0  0  0  0  0  0  0  0  0  0  0
 MicOpt= -1 -1 -1 -1 -1 -1 -1 -1 -1 -1 -1 -1 -1 -1 -1
 NAtoms=     15 NQM=       15 NQMF=       0 NMMI=      0 NMMIF=      0
                NMic=       0 NMicF=      0.
                    Isotopes and Nuclear Properties:
 (Nuclear quadrupole moments (NQMom) in fm**2, nuclear magnetic moments (NMagM)
  in nuclear magnetons)

  Atom         1           2           3           4           5           6           7           8           9          10
 IAtWgt=          12          14          12          12          12          14           1          14           1           1
 AtmWgt=  12.0000000  14.0030740  12.0000000  12.0000000  12.0000000  14.0030740   1.0078250  14.0030740   1.0078250   1.0078250
 NucSpn=           0           2           0           0           0           2           1           2           1           1
 AtZEff=  -0.0000000  -0.0000000  -0.0000000  -0.0000000  -0.0000000  -0.0000000  -0.0000000  -0.0000000  -0.0000000  -0.0000000
 NQMom=    0.0000000   2.0440000   0.0000000   0.0000000   0.0000000   2.0440000   0.0000000   2.0440000   0.0000000   0.0000000
 NMagM=    0.0000000   0.4037610   0.0000000   0.0000000   0.0000000   0.4037610   2.7928460   0.4037610   2.7928460   2.7928460
 AtZNuc=   6.0000000   7.0000000   6.0000000   6.0000000   6.0000000   7.0000000   1.0000000   7.0000000   1.0000000   1.0000000

  Atom        11          12          13          14          15
 IAtWgt=          14          14          12           1           1
 AtmWgt=  14.0030740  14.0030740  12.0000000   1.0078250   1.0078250
 NucSpn=           2           2           0           1           1
 AtZEff=  -0.0000000  -0.0000000  -0.0000000  -0.0000000  -0.0000000
 NQMom=    2.0440000   2.0440000   0.0000000   0.0000000   0.0000000
 NMagM=    0.4037610   0.4037610   0.0000000   2.7928460   2.7928460
 AtZNuc=   7.0000000   7.0000000   6.0000000   1.0000000   1.0000000
 Leave Link  101 at Tue Nov 22 14:19:22 2022, MaxMem=  1073741824 cpu:               5.8 elap:               0.1
 (Enter /shared/gaussian/g16.b01/AVX2/g16/l103.exe)

 GradGradGradGradGradGradGradGradGradGradGradGradGradGradGradGradGradGrad
 Berny optimization.
 Initialization pass.
 Trust Radius=3.00D-01 FncErr=1.00D-07 GrdErr=1.00D-07 EigMax=2.50D+02 EigMin=1.00D-04
 Number of steps in this run=      2 maximum allowed number of steps=      2.
 GradGradGradGradGradGradGradGradGradGradGradGradGradGradGradGradGradGrad

 Leave Link  103 at Tue Nov 22 14:19:22 2022, MaxMem=  1073741824 cpu:               1.1 elap:               0.0
 (Enter /shared/gaussian/g16.b01/AVX2/g16/l202.exe)
                          Input orientation:                          
 ---------------------------------------------------------------------
 Center     Atomic      Atomic             Coordinates (Angstroms)
 Number     Number       Type             X           Y           Z
 ---------------------------------------------------------------------
      1          6           0        0.664555   -2.021821    0.000000
      2          7           0        1.659008   -1.127792    0.000000
      3          6           0        1.353886    0.171290    0.000000
      4          6           0        0.000000    0.543282    0.000000
      5          6           0       -0.918721   -0.495494    0.000000
      6          7           0       -0.641588   -1.798863    0.000000
      7          1           0        0.973540   -3.061995    0.000000
      8          7           0        2.348282    1.080832    0.000000
      9          1           0        3.301658    0.761362    0.000000
     10          1           0        2.137417    2.063682    0.000000
     11          7           0       -0.633203    1.770424    0.000000
     12          7           0       -2.142670    0.123487    0.000000
     13          6           0       -1.899333    1.476588    0.000000
     14          1           0       -3.038351   -0.337796    0.000000
     15          1           0       -2.705393    2.195054    0.000000
 ---------------------------------------------------------------------
                    Distance matrix (angstroms):
                    1          2          3          4          5
     1  C    0.000000
     2  N    1.337245   0.000000
     3  C    2.298894   1.334434   0.000000
     4  C    2.649790   2.354739   1.404060   0.000000
     5  C    2.199190   2.654145   2.368405   1.386760   0.000000
     6  N    1.325036   2.396472   2.804179   2.428431   1.332506
     7  H    1.085096   2.052074   3.255579   3.734408   3.188664
     8  N    3.530070   2.313681   1.347624   2.409022   3.627411
     9  H    3.834113   2.503438   2.035191   3.308852   4.403554
    10  H    4.342886   3.227132   2.048187   2.623007   3.986146
    11  N    4.008154   3.695117   2.550638   1.380878   2.283836
    12  N    3.533109   4.002306   3.496883   2.183406   1.371564
    13  C    4.337325   4.409602   3.505315   2.116253   2.202432
    14  H    4.067856   4.763326   4.421642   3.163523   2.125488
    15  H    5.398017   5.485372   4.535787   3.169779   3.229744
                    6          7          8          9         10
     6  N    0.000000
     7  H    2.050400   0.000000
     8  N    4.151140   4.364966   0.000000
     9  H    4.701483   4.476404   1.005478   0.000000
    10  H    4.758374   5.256156   1.005215   1.746853   0.000000
    11  N    3.569297   5.092533   3.060194   4.062184   2.786097
    12  N    2.438991   4.456238   4.591858   5.481568   4.699309
    13  C    3.508632   5.371418   4.266012   5.249939   4.079219
    14  H    2.806989   4.849384   5.570307   6.434583   5.705758
    15  H    4.495627   6.416472   5.175048   6.175770   4.844592
                   11         12         13         14         15
    11  N    0.000000
    12  N    2.234030   0.000000
    13  C    1.299779   1.374807   0.000000
    14  H    3.198332   1.007485   2.142277   0.000000
    15  H    2.115250   2.146636   1.079781   2.554641   0.000000
 Stoichiometry    C5H5N5
 Framework group  CS[SG(C5H5N5)]
 Deg. of freedom    27
 Full point group                 CS      NOp   2
 Largest Abelian subgroup         CS      NOp   2
 Largest concise Abelian subgroup C1      NOp   1
                         Standard orientation:                         
 ---------------------------------------------------------------------
 Center     Atomic      Atomic             Coordinates (Angstroms)
 Number     Number       Type             X           Y           Z
 ---------------------------------------------------------------------
      1          6           0        0.664555   -2.021821    0.000000
      2          7           0        1.659008   -1.127792    0.000000
      3          6           0        1.353886    0.171290    0.000000
      4          6           0        0.000000    0.543282    0.000000
      5          6           0       -0.918721   -0.495494    0.000000
      6          7           0       -0.641588   -1.798863    0.000000
      7          1           0        0.973540   -3.061995    0.000000
      8          7           0        2.348282    1.080832    0.000000
      9          1           0        3.301658    0.761362    0.000000
     10          1           0        2.137417    2.063682    0.000000
     11          7           0       -0.633203    1.770424    0.000000
     12          7           0       -2.142670    0.123487    0.000000
     13          6           0       -1.899333    1.476588    0.000000
     14          1           0       -3.038351   -0.337796    0.000000
     15          1           0       -2.705393    2.195054    0.000000
 ---------------------------------------------------------------------
 Rotational constants (GHZ):           2.3964758           1.5822755           0.9530339
 Leave Link  202 at Tue Nov 22 14:19:22 2022, MaxMem=  1073741824 cpu:               0.4 elap:               0.0
 (Enter /shared/gaussian/g16.b01/AVX2/g16/l301.exe)
 Standard basis: 6-311+G(d,p) (5D, 7F)
 Ernie: Thresh=  0.10000D-02 Tol=  0.10000D-05 Strict=F.
 There are   195 symmetry adapted cartesian basis functions of A'  symmetry.
 There are    65 symmetry adapted cartesian basis functions of A"  symmetry.
 There are   185 symmetry adapted basis functions of A'  symmetry.
 There are    65 symmetry adapted basis functions of A"  symmetry.
   250 basis functions,   400 primitive gaussians,   260 cartesian basis functions
    35 alpha electrons       35 beta electrons
       nuclear repulsion energy       504.7215260918 Hartrees.
 IExCor=20419 DFT=T Ex+Corr=CAM-B3LYP ExCW=0 ScaHFX=  1.000000
 ScaDFX=  1.000000  1.000000  1.000000  0.810000 ScalE2=  1.000000  1.000000
 IRadAn=      5 IRanWt=     -1 IRanGd=            0 ICorTp=0 IEmpDi=  4
 HFx  wShort=  0.000000 wLong=  0.330000 cFull=  0.190000 cShort=  0.000000 cLong=  0.460000
 DFx  wShort=  0.000000 wLong=  0.330000 cFull=  0.190000 cShort=  0.000000 cLong=  0.460000
 NAtoms=   15 NActive=   15 NUniq=   15 SFac= 1.00D+00 NAtFMM=   60 NAOKFM=F Big=F
 Integral buffers will be    131072 words long.
 Raffenetti 1 integral format.
 Two-electron integral symmetry is turned on.
 Leave Link  301 at Tue Nov 22 14:19:22 2022, MaxMem=  1073741824 cpu:               2.5 elap:               0.1
 (Enter /shared/gaussian/g16.b01/AVX2/g16/l302.exe)
 NPDir=0 NMtPBC=     1 NCelOv=     1 NCel=       1 NClECP=     1 NCelD=      1
         NCelK=      1 NCelE2=     1 NClLst=     1 CellRange=     0.0.
 One-electron integrals computed using PRISM.
 One-electron integral symmetry used in STVInt
 NBasis=   250 RedAO= T EigKep=  6.12D-06  NBF=   185    65
 NBsUse=   250 1.00D-06 EigRej= -1.00D+00 NBFU=   185    65
 Precomputing XC quadrature grid using
 IXCGrd= 4 IRadAn=           5 IRanWt=          -1 IRanGd=           0 AccXCQ= 0.00D+00.
 Generated NRdTot=       0 NPtTot=           0 NUsed=           0 NTot=          32
 NSgBfM=   260   260   260   260   260 MxSgAt=    15 MxSgA2=    15.
 Leave Link  302 at Tue Nov 22 14:19:22 2022, MaxMem=  1073741824 cpu:              11.6 elap:               0.3
 (Enter /shared/gaussian/g16.b01/AVX2/g16/l303.exe)
 DipDrv:  MaxL=1.
 Leave Link  303 at Tue Nov 22 14:19:22 2022, MaxMem=  1073741824 cpu:               1.8 elap:               0.1
 (Enter /shared/gaussian/g16.b01/AVX2/g16/l308.exe)
 Leave Link  308 at Tue Nov 22 14:19:22 2022, MaxMem=  1073741824 cpu:               2.0 elap:               0.1
 (Enter /shared/gaussian/g16.b01/AVX2/g16/l401.exe)
 ExpMin= 4.38D-02 ExpMax= 6.29D+03 ExpMxC= 9.49D+02 IAcc=3 IRadAn=         5 AccDes= 0.00D+00
 Harris functional with IExCor=20419 and IRadAn=       5 diagonalized for initial guess.
 HarFok:  IExCor=20419 AccDes= 0.00D+00 IRadAn=         5 IDoV= 1 UseB2=F ITyADJ=14
 ICtDFT=  3500011 ScaDFX=  1.000000  1.000000  1.000000  1.000000
 FoFCou: FMM=F IPFlag=           0 FMFlag=      100000 FMFlg1=           0
         NFxFlg=           0 DoJE=T BraDBF=F KetDBF=T FulRan=T
         wScrn=  0.000000 ICntrl=       500 IOpCl=  0 I1Cent=   200000004 NGrid=           0
         NMat0=    1 NMatS0=      1 NMatT0=    0 NMatD0=    1 NMtDS0=    0 NMtDT0=    0
 Petite list used in FoFCou.
 Harris En= -449.901488674200    
 JPrj=0 DoOrth=F DoCkMO=F.
 Initial guess orbital symmetries:
       Occupied  (A') (A') (A') (A') (A') (A') (A') (A') (A') (A')
                 (A') (A') (A') (A') (A') (A') (A') (A') (A') (A')
                 (A') (A') (A') (A") (A') (A') (A') (A") (A") (A')
                 (A') (A") (A") (A') (A")
       Virtual   (A') (A") (A') (A') (A") (A') (A') (A") (A') (A")
                 (A') (A") (A') (A") (A') (A') (A') (A") (A") (A')
                 (A') (A") (A') (A') (A') (A') (A") (A') (A') (A')
                 (A") (A") (A') (A') (A') (A") (A') (A') (A") (A')
                 (A') (A') (A') (A') (A') (A') (A') (A') (A') (A')
                 (A') (A') (A') (A') (A') (A') (A') (A') (A') (A")
                 (A') (A") (A') (A') (A") (A") (A') (A") (A') (A')
                 (A') (A') (A') (A') (A') (A') (A') (A") (A') (A')
                 (A") (A') (A') (A") (A') (A') (A") (A') (A') (A")
                 (A') (A') (A') (A') (A') (A") (A') (A') (A") (A')
                 (A") (A') (A") (A") (A") (A') (A") (A') (A') (A")
                 (A") (A') (A') (A') (A') (A') (A') (A') (A") (A')
                 (A") (A') (A') (A') (A') (A") (A') (A") (A') (A")
                 (A') (A') (A") (A') (A') (A') (A') (A') (A") (A')
                 (A') (A") (A") (A') (A') (A") (A') (A") (A") (A")
                 (A') (A') (A') (A") (A') (A') (A") (A') (A') (A')
                 (A") (A') (A") (A') (A') (A') (A") (A") (A") (A')
                 (A') (A') (A") (A') (A') (A') (A') (A') (A') (A')
                 (A') (A') (A') (A') (A') (A') (A') (A') (A") (A')
                 (A") (A") (A") (A") (A') (A') (A') (A') (A') (A')
                 (A') (A') (A') (A') (A') (A') (A') (A') (A') (A')
                 (A') (A') (A') (A') (A')
 The electronic state of the initial guess is 1-A'.
 Leave Link  401 at Tue Nov 22 14:19:23 2022, MaxMem=  1073741824 cpu:              15.4 elap:               0.4
 (Enter /shared/gaussian/g16.b01/AVX2/g16/l502.exe)
 Integral symmetry usage will be decided dynamically.
 Closed shell SCF:
 Using DIIS extrapolation, IDIIS=  1040.
 NGot=  1073741824 LenX=  1073590539 LenY=  1073522498
 Requested convergence on RMS density matrix=1.00D-08 within 128 cycles.
 Requested convergence on MAX density matrix=1.00D-06.
 Requested convergence on             energy=1.00D-06.
 No special actions if energy rises.
 Fock matrices will be formed incrementally for  20 cycles.

 Cycle   1  Pass 1  IDiag  1:
 FoFJK:  IHMeth= 1 ICntrl=       0 DoSepK=T KAlg= 0 I1Cent=           0 FoldK=F
 IRaf=         1 NMat=       1 IRICut=       1 DoRegI=T DoRafI=F ISym2E= 1 IDoP0=0 IntGTp=1.
 FoFCou: FMM=F IPFlag=           0 FMFlag=      100000 FMFlg1=           0
         NFxFlg=           0 DoJE=T BraDBF=F KetDBF=F FulRan=T
         wScrn=  0.000000 ICntrl=       500 IOpCl=  0 I1Cent=           0 NGrid=           0
         NMat0=    1 NMatS0=      1 NMatT0=    0 NMatD0=    1 NMtDS0=    0 NMtDT0=    0
 Petite list used in FoFCou.
 E= -467.139496409446    
 DIIS: error= 5.89D-02 at cycle   1 NSaved=   1.
 NSaved= 1 IEnMin= 1 EnMin= -467.139496409446     IErMin= 1 ErrMin= 5.89D-02
 ErrMax= 5.89D-02  0.00D+00 EMaxC= 1.00D-01 BMatC= 7.74D-01 BMatP= 7.74D-01
 IDIUse=3 WtCom= 4.11D-01 WtEn= 5.89D-01
 Coeff-Com:  0.100D+01
 Coeff-En:   0.100D+01
 Coeff:      0.100D+01
 Gap=     0.295 Goal=   None    Shift=    0.000
 GapD=    0.295 DampG=1.000 DampE=0.500 DampFc=0.5000 IDamp=-1.
 Damping current iteration by 5.00D-01
 RMSDP=5.88D-03 MaxDP=3.94D-01              OVMax= 1.01D-01

 Cycle   2  Pass 1  IDiag  1:
 RMSU=  2.82D-03    CP:  9.68D-01
 E= -467.184845593915     Delta-E=       -0.045349184469 Rises=F Damp=T
 DIIS: error= 2.75D-02 at cycle   2 NSaved=   2.
 NSaved= 2 IEnMin= 2 EnMin= -467.184845593915     IErMin= 2 ErrMin= 2.75D-02
 ErrMax= 2.75D-02  0.00D+00 EMaxC= 1.00D-01 BMatC= 1.67D-01 BMatP= 7.74D-01
 IDIUse=3 WtCom= 7.25D-01 WtEn= 2.75D-01
 Coeff-Com: -0.759D+00 0.176D+01
 Coeff-En:   0.000D+00 0.100D+01
 Coeff:     -0.550D+00 0.155D+01
 Gap=     0.301 Goal=   None    Shift=    0.000
 RMSDP=3.93D-03 MaxDP=3.37D-01 DE=-4.53D-02 OVMax= 8.04D-02

 Cycle   3  Pass 1  IDiag  1:
 RMSU=  2.36D-03    CP:  8.52D-01  1.42D+00
 E= -467.213212482040     Delta-E=       -0.028366888125 Rises=F Damp=F
 DIIS: error= 1.18D-02 at cycle   3 NSaved=   3.
 NSaved= 3 IEnMin= 3 EnMin= -467.213212482040     IErMin= 3 ErrMin= 1.18D-02
 ErrMax= 1.18D-02  0.00D+00 EMaxC= 1.00D-01 BMatC= 2.31D-02 BMatP= 1.67D-01
 IDIUse=3 WtCom= 8.82D-01 WtEn= 1.18D-01
 Coeff-Com: -0.402D+00 0.865D+00 0.537D+00
 Coeff-En:   0.000D+00 0.000D+00 0.100D+01
 Coeff:     -0.354D+00 0.763D+00 0.591D+00
 Gap=     0.296 Goal=   None    Shift=    0.000
 RMSDP=1.45D-03 MaxDP=8.33D-02 DE=-2.84D-02 OVMax= 5.06D-02

 Cycle   4  Pass 1  IDiag  1:
 RMSU=  7.60D-04    CP:  8.51D-01  1.76D+00  6.86D-01
 E= -467.230679706237     Delta-E=       -0.017467224198 Rises=F Damp=F
 DIIS: error= 3.58D-03 at cycle   4 NSaved=   4.
 NSaved= 4 IEnMin= 4 EnMin= -467.230679706237     IErMin= 4 ErrMin= 3.58D-03
 ErrMax= 3.58D-03  0.00D+00 EMaxC= 1.00D-01 BMatC= 2.17D-03 BMatP= 2.31D-02
 IDIUse=3 WtCom= 9.64D-01 WtEn= 3.58D-02
 Coeff-Com: -0.166D+00 0.353D+00 0.330D+00 0.482D+00
 Coeff-En:   0.000D+00 0.000D+00 0.222D-01 0.978D+00
 Coeff:     -0.160D+00 0.341D+00 0.319D+00 0.500D+00
 Gap=     0.295 Goal=   None    Shift=    0.000
 RMSDP=4.33D-04 MaxDP=3.44D-02 DE=-1.75D-02 OVMax= 1.25D-02

 Cycle   5  Pass 1  IDiag  1:
 RMSU=  1.89D-04    CP:  8.46D-01  1.71D+00  8.07D-01  7.75D-01
 E= -467.232462124397     Delta-E=       -0.001782418159 Rises=F Damp=F
 DIIS: error= 5.57D-04 at cycle   5 NSaved=   5.
 NSaved= 5 IEnMin= 5 EnMin= -467.232462124397     IErMin= 5 ErrMin= 5.57D-04
 ErrMax= 5.57D-04  0.00D+00 EMaxC= 1.00D-01 BMatC= 6.24D-05 BMatP= 2.17D-03
 IDIUse=3 WtCom= 9.94D-01 WtEn= 5.57D-03
 Coeff-Com: -0.273D-01 0.573D-01 0.852D-01 0.226D+00 0.658D+00
 Coeff-En:   0.000D+00 0.000D+00 0.000D+00 0.000D+00 0.100D+01
 Coeff:     -0.271D-01 0.570D-01 0.847D-01 0.225D+00 0.660D+00
 Gap=     0.296 Goal=   None    Shift=    0.000
 RMSDP=1.10D-04 MaxDP=9.07D-03 DE=-1.78D-03 OVMax= 2.58D-03

 Cycle   6  Pass 1  IDiag  1:
 RMSU=  5.41D-05    CP:  8.43D-01  1.73D+00  8.16D-01  8.34D-01  9.36D-01
 E= -467.232515059992     Delta-E=       -0.000052935596 Rises=F Damp=F
 DIIS: error= 1.53D-04 at cycle   6 NSaved=   6.
 NSaved= 6 IEnMin= 6 EnMin= -467.232515059992     IErMin= 6 ErrMin= 1.53D-04
 ErrMax= 1.53D-04  0.00D+00 EMaxC= 1.00D-01 BMatC= 5.88D-06 BMatP= 6.24D-05
 IDIUse=3 WtCom= 9.98D-01 WtEn= 1.53D-03
 Coeff-Com:  0.158D-01-0.337D-01-0.152D-01 0.175D-01 0.273D+00 0.742D+00
 Coeff-En:   0.000D+00 0.000D+00 0.000D+00 0.000D+00 0.000D+00 0.100D+01
 Coeff:      0.158D-01-0.336D-01-0.152D-01 0.175D-01 0.273D+00 0.743D+00
 Gap=     0.296 Goal=   None    Shift=    0.000
 RMSDP=1.04D-04 MaxDP=1.16D-02 DE=-5.29D-05 OVMax= 1.11D-03

 Cycle   7  Pass 1  IDiag  1:
 RMSU=  2.03D-05    CP:  8.40D-01  1.73D+00  8.33D-01  8.84D-01  1.05D+00
                    CP:  1.08D+00
 E= -467.232521889331     Delta-E=       -0.000006829339 Rises=F Damp=F
 DIIS: error= 5.25D-05 at cycle   7 NSaved=   7.
 NSaved= 7 IEnMin= 7 EnMin= -467.232521889331     IErMin= 7 ErrMin= 5.25D-05
 ErrMax= 5.25D-05  0.00D+00 EMaxC= 1.00D-01 BMatC= 5.45D-07 BMatP= 5.88D-06
 IDIUse=1 WtCom= 1.00D+00 WtEn= 0.00D+00
 Coeff-Com:  0.739D-02-0.157D-01-0.113D-01-0.131D-01 0.434D-01 0.283D+00
 Coeff-Com:  0.706D+00
 Coeff:      0.739D-02-0.157D-01-0.113D-01-0.131D-01 0.434D-01 0.283D+00
 Coeff:      0.706D+00
 Gap=     0.296 Goal=   None    Shift=    0.000
 RMSDP=2.26D-05 MaxDP=2.17D-03 DE=-6.83D-06 OVMax= 2.20D-04

 Cycle   8  Pass 1  IDiag  1:
 RMSU=  4.80D-06    CP:  8.39D-01  1.73D+00  8.37D-01  8.95D-01  1.07D+00
                    CP:  1.17D+00  1.08D+00
 E= -467.232522434225     Delta-E=       -0.000000544894 Rises=F Damp=F
 DIIS: error= 2.35D-05 at cycle   8 NSaved=   8.
 NSaved= 8 IEnMin= 8 EnMin= -467.232522434225     IErMin= 8 ErrMin= 2.35D-05
 ErrMax= 2.35D-05  0.00D+00 EMaxC= 1.00D-01 BMatC= 1.10D-07 BMatP= 5.45D-07
 IDIUse=1 WtCom= 1.00D+00 WtEn= 0.00D+00
 Coeff-Com:  0.103D-02-0.215D-02-0.318D-02-0.110D-01-0.271D-01 0.217D-01
 Coeff-Com:  0.341D+00 0.680D+00
 Coeff:      0.103D-02-0.215D-02-0.318D-02-0.110D-01-0.271D-01 0.217D-01
 Coeff:      0.341D+00 0.680D+00
 Gap=     0.296 Goal=   None    Shift=    0.000
 RMSDP=7.56D-06 MaxDP=5.97D-04 DE=-5.45D-07 OVMax= 1.71D-04

 Cycle   9  Pass 1  IDiag  1:
 RMSU=  3.04D-06    CP:  8.39D-01  1.73D+00  8.38D-01  8.98D-01  1.09D+00
                    CP:  1.21D+00  1.20D+00  8.82D-01
 E= -467.232522565485     Delta-E=       -0.000000131260 Rises=F Damp=F
 DIIS: error= 7.37D-06 at cycle   9 NSaved=   9.
 NSaved= 9 IEnMin= 9 EnMin= -467.232522565485     IErMin= 9 ErrMin= 7.37D-06
 ErrMax= 7.37D-06  0.00D+00 EMaxC= 1.00D-01 BMatC= 8.88D-09 BMatP= 1.10D-07
 IDIUse=1 WtCom= 1.00D+00 WtEn= 0.00D+00
 Coeff-Com: -0.652D-03 0.139D-02 0.531D-03-0.172D-02-0.131D-01-0.248D-01
 Coeff-Com:  0.127D-02 0.222D+00 0.815D+00
 Coeff:     -0.652D-03 0.139D-02 0.531D-03-0.172D-02-0.131D-01-0.248D-01
 Coeff:      0.127D-02 0.222D+00 0.815D+00
 Gap=     0.296 Goal=   None    Shift=    0.000
 RMSDP=1.52D-06 MaxDP=8.53D-05 DE=-1.31D-07 OVMax= 5.44D-05

 Cycle  10  Pass 1  IDiag  1:
 RMSU=  7.57D-07    CP:  8.39D-01  1.73D+00  8.38D-01  8.99D-01  1.09D+00
                    CP:  1.22D+00  1.23D+00  9.91D-01  1.07D+00
 E= -467.232522577171     Delta-E=       -0.000000011686 Rises=F Damp=F
 DIIS: error= 3.21D-06 at cycle  10 NSaved=  10.
 NSaved=10 IEnMin=10 EnMin= -467.232522577171     IErMin=10 ErrMin= 3.21D-06
 ErrMax= 3.21D-06  0.00D+00 EMaxC= 1.00D-01 BMatC= 1.81D-09 BMatP= 8.88D-09
 IDIUse=1 WtCom= 1.00D+00 WtEn= 0.00D+00
 Coeff-Com: -0.399D-03 0.847D-03 0.557D-03 0.239D-03-0.371D-02-0.144D-01
 Coeff-Com: -0.391D-01 0.388D-01 0.401D+00 0.616D+00
 Coeff:     -0.399D-03 0.847D-03 0.557D-03 0.239D-03-0.371D-02-0.144D-01
 Coeff:     -0.391D-01 0.388D-01 0.401D+00 0.616D+00
 Gap=     0.296 Goal=   None    Shift=    0.000
 RMSDP=6.19D-07 MaxDP=5.02D-05 DE=-1.17D-08 OVMax= 1.67D-05

 Cycle  11  Pass 1  IDiag  1:
 RMSU=  3.15D-07    CP:  8.39D-01  1.73D+00  8.38D-01  8.99D-01  1.09D+00
                    CP:  1.22D+00  1.24D+00  1.02D+00  1.12D+00  8.44D-01
 E= -467.232522579244     Delta-E=       -0.000000002073 Rises=F Damp=F
 DIIS: error= 1.66D-06 at cycle  11 NSaved=  11.
 NSaved=11 IEnMin=11 EnMin= -467.232522579244     IErMin=11 ErrMin= 1.66D-06
 ErrMax= 1.66D-06  0.00D+00 EMaxC= 1.00D-01 BMatC= 1.20D-10 BMatP= 1.81D-09
 IDIUse=1 WtCom= 1.00D+00 WtEn= 0.00D+00
 Coeff-Com: -0.236D-04 0.494D-04 0.955D-04 0.297D-03 0.597D-03-0.101D-02
 Coeff-Com: -0.138D-01-0.153D-01 0.239D-01 0.188D+00 0.817D+00
 Coeff:     -0.236D-04 0.494D-04 0.955D-04 0.297D-03 0.597D-03-0.101D-02
 Coeff:     -0.138D-01-0.153D-01 0.239D-01 0.188D+00 0.817D+00
 Gap=     0.296 Goal=   None    Shift=    0.000
 RMSDP=2.72D-07 MaxDP=2.13D-05 DE=-2.07D-09 OVMax= 1.08D-05

 Cycle  12  Pass 1  IDiag  1:
 RMSU=  1.13D-07    CP:  8.39D-01  1.73D+00  8.38D-01  8.99D-01  1.09D+00
                    CP:  1.22D+00  1.24D+00  1.02D+00  1.16D+00  9.54D-01
                    CP:  1.06D+00
 E= -467.232522579447     Delta-E=       -0.000000000203 Rises=F Damp=F
 DIIS: error= 5.52D-07 at cycle  12 NSaved=  12.
 NSaved=12 IEnMin=12 EnMin= -467.232522579447     IErMin=12 ErrMin= 5.52D-07
 ErrMax= 5.52D-07  0.00D+00 EMaxC= 1.00D-01 BMatC= 3.77D-11 BMatP= 1.20D-10
 IDIUse=1 WtCom= 1.00D+00 WtEn= 0.00D+00
 Coeff-Com:  0.307D-04-0.658D-04-0.406D-05 0.158D-03 0.830D-03 0.135D-02
 Coeff-Com: -0.234D-02-0.139D-01-0.430D-01 0.789D-02 0.414D+00 0.635D+00
 Coeff:      0.307D-04-0.658D-04-0.406D-05 0.158D-03 0.830D-03 0.135D-02
 Coeff:     -0.234D-02-0.139D-01-0.430D-01 0.789D-02 0.414D+00 0.635D+00
 Gap=     0.296 Goal=   None    Shift=    0.000
 RMSDP=1.19D-07 MaxDP=9.64D-06 DE=-2.03D-10 OVMax= 3.80D-06

 Cycle  13  Pass 1  IDiag  1:
 RMSU=  3.98D-08    CP:  8.39D-01  1.73D+00  8.38D-01  8.99D-01  1.09D+00
                    CP:  1.22D+00  1.24D+00  1.02D+00  1.17D+00  9.75D-01
                    CP:  1.15D+00  1.08D+00
 E= -467.232522579496     Delta-E=       -0.000000000049 Rises=F Damp=F
 DIIS: error= 2.45D-07 at cycle  13 NSaved=  13.
 NSaved=13 IEnMin=13 EnMin= -467.232522579496     IErMin=13 ErrMin= 2.45D-07
 ErrMax= 2.45D-07  0.00D+00 EMaxC= 1.00D-01 BMatC= 1.57D-12 BMatP= 3.77D-11
 IDIUse=1 WtCom= 1.00D+00 WtEn= 0.00D+00
 Coeff-Com:  0.806D-05-0.169D-04-0.192D-04-0.352D-04-0.264D-04 0.363D-03
 Coeff-Com:  0.194D-02 0.752D-03-0.519D-02-0.258D-01-0.797D-01 0.540D-01
 Coeff-Com:  0.105D+01
 Coeff:      0.806D-05-0.169D-04-0.192D-04-0.352D-04-0.264D-04 0.363D-03
 Coeff:      0.194D-02 0.752D-03-0.519D-02-0.258D-01-0.797D-01 0.540D-01
 Coeff:      0.105D+01
 Gap=     0.296 Goal=   None    Shift=    0.000
 RMSDP=5.36D-08 MaxDP=5.51D-06 DE=-4.88D-11 OVMax= 2.16D-06

 Cycle  14  Pass 1  IDiag  1:
 RMSU=  1.46D-08    CP:  8.39D-01  1.73D+00  8.38D-01  8.99D-01  1.09D+00
                    CP:  1.22D+00  1.24D+00  1.02D+00  1.17D+00  9.78D-01
                    CP:  1.19D+00  1.19D+00  1.04D+00
 E= -467.232522579500     Delta-E=       -0.000000000005 Rises=F Damp=F
 DIIS: error= 4.31D-08 at cycle  14 NSaved=  14.
 NSaved=14 IEnMin=14 EnMin= -467.232522579500     IErMin=14 ErrMin= 4.31D-08
 ErrMax= 4.31D-08  0.00D+00 EMaxC= 1.00D-01 BMatC= 3.01D-13 BMatP= 1.57D-12
 IDIUse=1 WtCom= 1.00D+00 WtEn= 0.00D+00
 Coeff-Com: -0.805D-06 0.181D-05-0.543D-05-0.255D-04-0.961D-04-0.372D-04
 Coeff-Com:  0.814D-03 0.131D-02 0.260D-02-0.104D-01-0.690D-01-0.499D-01
 Coeff-Com:  0.317D+00 0.808D+00
 Coeff:     -0.805D-06 0.181D-05-0.543D-05-0.255D-04-0.961D-04-0.372D-04
 Coeff:      0.814D-03 0.131D-02 0.260D-02-0.104D-01-0.690D-01-0.499D-01
 Coeff:      0.317D+00 0.808D+00
 Gap=     0.296 Goal=   None    Shift=    0.000
 RMSDP=9.61D-09 MaxDP=5.03D-07 DE=-4.55D-12 OVMax= 6.26D-07

 SCF Done:  E(RCAM-B3LYP) =  -467.232522580     A.U. after   14 cycles
            NFock= 14  Conv=0.96D-08     -V/T= 2.0031
 KE= 4.658038494387D+02 PE=-2.099126685268D+03 EE= 6.613687871576D+02
 Leave Link  502 at Tue Nov 22 14:19:31 2022, MaxMem=  1073741824 cpu:             411.9 elap:               8.3
 (Enter /shared/gaussian/g16.b01/AVX2/g16/l801.exe)
 DoSCS=F DFT=T ScalE2(SS,OS)=  1.000000  1.000000
 ExpMin= 4.38D-02 ExpMax= 6.29D+03 ExpMxC= 9.49D+02 IAcc=3 IRadAn=         5 AccDes= 0.00D+00
 HarFok:  IExCor=  205 AccDes= 0.00D+00 IRadAn=         5 IDoV=-2 UseB2=F ITyADJ=14
 ICtDFT= 12500011 ScaDFX=  1.000000  1.000000  1.000000  1.000000
 Largest valence mixing into a core orbital is  5.09D-05
 Largest core mixing into a valence orbital is  1.22D-05
 Range of M.O.s used for correlation:    11   250
 NBasis=   250 NAE=    35 NBE=    35 NFC=    10 NFV=     0
 NROrb=    240 NOA=    25 NOB=    25 NVA=   215 NVB=   215

 **** Warning!!: The largest alpha MO coefficient is  0.14515984D+03

 Leave Link  801 at Tue Nov 22 14:19:31 2022, MaxMem=  1073741824 cpu:               2.2 elap:               0.1
 (Enter /shared/gaussian/g16.b01/AVX2/g16/l914.exe)
 RHF ground state
 Two-electron integrals replicated using symmetry.
 MDV=  1073741824 DFT=T DoStab=F Mixed=T DoRPA=T DoScal=F NonHer=T
 Making orbital integer symmetry assigments:
 Orbital symmetries:
       Occupied  (A') (A') (A') (A') (A') (A') (A') (A') (A') (A')
                 (A') (A') (A') (A') (A') (A') (A') (A') (A') (A')
                 (A') (A') (A') (A") (A') (A') (A') (A") (A") (A')
                 (A") (A') (A") (A') (A")
       Virtual   (A") (A') (A') (A") (A') (A') (A") (A') (A") (A')
                 (A') (A") (A') (A') (A") (A') (A') (A") (A') (A")
                 (A') (A') (A') (A") (A') (A') (A') (A") (A') (A')
                 (A") (A') (A') (A') (A") (A') (A") (A') (A') (A")
                 (A') (A') (A') (A') (A') (A') (A') (A') (A') (A')
                 (A') (A') (A') (A') (A') (A') (A') (A') (A') (A")
                 (A') (A') (A") (A") (A') (A") (A') (A') (A") (A')
                 (A') (A') (A') (A') (A') (A') (A') (A") (A') (A')
                 (A") (A') (A') (A') (A") (A') (A") (A') (A') (A")
                 (A') (A') (A') (A') (A") (A') (A') (A") (A') (A')
                 (A") (A') (A") (A") (A") (A') (A") (A') (A') (A")
                 (A") (A') (A') (A') (A') (A') (A') (A') (A") (A')
                 (A") (A') (A') (A') (A") (A') (A') (A") (A') (A")
                 (A') (A') (A") (A') (A') (A') (A') (A") (A') (A')
                 (A') (A") (A") (A') (A') (A") (A') (A") (A") (A")
                 (A') (A') (A") (A') (A') (A') (A") (A') (A') (A')
                 (A") (A') (A') (A") (A') (A') (A") (A") (A") (A')
                 (A') (A') (A") (A') (A') (A') (A') (A') (A') (A')
                 (A') (A') (A') (A') (A') (A') (A') (A') (A") (A')
                 (A") (A") (A") (A") (A') (A') (A') (A') (A') (A')
                 (A') (A') (A') (A') (A') (A') (A') (A') (A') (A')
                 (A') (A') (A') (A') (A')
    40 initial guesses have been made.
 Convergence on wavefunction:    0.000001000000000
 Davidson Disk Diagonalization:  ConvIn= 1.00D-06 SkipCon=T Conv= 1.00D-06.
 Max sub-space:  2000 roots to seek:    40 dimension of matrix:        10750
 Iteration     1 Dimension    40 NMult     0 NNew     40
 CISAX will form    40 AO SS matrices at one time.
 NMat=    40 NSing=    40 JSym2X=-1.
 FoFJK:  IHMeth= 1 ICntrl=       0 DoSepK=T KAlg= 0 I1Cent=           0 FoldK=F
 IRaf=         1 NMat=      80 IRICut=       1 DoRegI=T DoRafI=F ISym2E=-1 IDoP0=3 IntGTp=3.
 FoFCou: FMM=F IPFlag=           0 FMFlag=      100000 FMFlg1=           0
         NFxFlg=           0 DoJE=F BraDBF=F KetDBF=F FulRan=T
         wScrn=  0.000000 ICntrl=       500 IOpCl=  0 I1Cent=           0 NGrid=           0
         NMat0=   40 NMatS0=     40 NMatT0=    0 NMatD0=   40 NMtDS0=    0 NMtDT0=    0
 Petite list used in FoFCou.
 New state      1 was old state      6
 New state      2 was old state      4
 New state      3 was old state      2
 New state      4 was old state      1
 New state      5 was old state     14
 New state      6 was old state      3
 New state      7 was old state     17
 New state      8 was old state      5
 New state      9 was old state     10
 New state     10 was old state     11
 Excitation Energies [eV] at current iteration:
 Root      1 :     5.529306932208943
 Root      2 :     5.821047697349059
 Root      3 :     5.967239002971537
 Root      4 :     6.064019568892043
 Root      5 :     6.120964651794470
 Root      6 :     6.313845668642870
 Root      7 :     6.578474803134708
 Root      8 :     6.876768662485690
 Root      9 :     7.068843703691503
 Root     10 :     7.071747042485673
 Root     11 :     7.158365451311805
 Root     12 :     7.292321724965215
 Root     13 :     7.301327242021975
 Root     14 :     7.305991272500543
 Root     15 :     7.349434159305829
 Root     16 :     7.483142784544626
 Root     17 :     7.644701358440320
 Root     18 :     7.734030186200819
 Root     19 :     7.801644436857795
 Root     20 :     7.814818761822778
 Root     21 :     7.951952294595654
 Root     22 :     7.999733810028052
 Root     23 :     8.093531300878603
 Root     24 :     8.214747838614326
 Root     25 :     8.240862156572069
 Root     26 :     8.250446871659477
 Root     27 :     8.282750160161779
 Root     28 :     8.330901466121771
 Root     29 :     8.332111210030545
 Root     30 :     8.366464121512475
 Root     31 :     8.430330461252776
 Root     32 :     8.487498026737722
 Root     33 :     8.511508294584711
 Root     34 :     8.512617029440850
 Root     35 :     8.647909586631270
 Root     36 :     8.672929201598112
 Root     37 :     8.701805290382492
 Root     38 :     8.755761313968721
 Root     39 :     8.801190785079889
 Root     40 :     9.006339848432278
 Iteration     2 Dimension    60 NMult    40 NNew     20
 CISAX will form    20 AO SS matrices at one time.
 NMat=    20 NSing=    20 JSym2X=-1.
 Root      1 not converged, maximum delta is    0.040160926050768
 New state      2 was old state      4
 Root      2 not converged, maximum delta is    0.229361790824823
 New state      3 was old state      2
 Root      3 not converged, maximum delta is    0.276677810197886
 New state      4 was old state      3
 Root      4 not converged, maximum delta is    0.041755108779831
 Root      5 not converged, maximum delta is    0.036925179011030
 Root      6 not converged, maximum delta is    0.049750089138457
 Root      7 not converged, maximum delta is    0.086753562210737
 Root      8 not converged, maximum delta is    0.038134925105752
 Root      9 not converged, maximum delta is    0.174237138826507
 Root     10 not converged, maximum delta is    0.038692016814063
 Excitation Energies [eV] at current iteration:
 Root      1 :     5.378161777640520   Change is   -0.151145154568424
 Root      2 :     5.422219310137500   Change is   -0.641800258754543
 Root      3 :     5.547938785571632   Change is   -0.273108911777427
 Root      4 :     5.867124016046350   Change is   -0.100114986925187
 Root      5 :     5.960605703639813   Change is   -0.160358948154657
 Root      6 :     6.215114963571701   Change is   -0.098730705071169
 Root      7 :     6.321341719312956   Change is   -0.257133083821752
 Root      8 :     6.757014720321614   Change is   -0.119753942164076
 Root      9 :     6.798867883191106   Change is   -0.269975820500397
 Root     10 :     6.939885459544654   Change is   -0.131861582941018
 Iteration     3 Dimension    80 NMult    60 NNew     20
 CISAX will form    20 AO SS matrices at one time.
 NMat=    20 NSing=    20 JSym2X=-1.
 Root      1 not converged, maximum delta is    0.013346868284182
 Root      2 not converged, maximum delta is    0.018628189146669
 Root      3 not converged, maximum delta is    0.016845158473462
 Root      4 not converged, maximum delta is    0.003097121522221
 Root      5 not converged, maximum delta is    0.006211466972621
 Root      6 not converged, maximum delta is    0.003192326495976
 Root      7 not converged, maximum delta is    0.018077547906979
 New state      8 was old state      9
 Root      8 not converged, maximum delta is    0.159105020530302
 New state      9 was old state      8
 Root      9 not converged, maximum delta is    0.006707264077848
 Root     10 not converged, maximum delta is    0.007898110966494
 Excitation Energies [eV] at current iteration:
 Root      1 :     5.369257091935563   Change is   -0.008904685704956
 Root      2 :     5.389717576477699   Change is   -0.032501733659802
 Root      3 :     5.525101139128743   Change is   -0.022837646442890
 Root      4 :     5.865376932804372   Change is   -0.001747083241977
 Root      5 :     5.954220141647524   Change is   -0.006385561992289
 Root      6 :     6.213156303154213   Change is   -0.001958660417487
 Root      7 :     6.306246786144301   Change is   -0.015094933168656
 Root      8 :     6.714815531103962   Change is   -0.084052352087144
 Root      9 :     6.754010233962493   Change is   -0.003004486359121
 Root     10 :     6.933847492902421   Change is   -0.006037966642233
 Iteration     4 Dimension   100 NMult    80 NNew     20
 CISAX will form    20 AO SS matrices at one time.
 NMat=    20 NSing=    20 JSym2X=-1.
 Root      1 not converged, maximum delta is    0.002928094105681
 Root      2 not converged, maximum delta is    0.002884107016923
 Root      3 not converged, maximum delta is    0.003784760836640
 Root      4 not converged, maximum delta is    0.000671835958853
 Root      5 not converged, maximum delta is    0.002816271496353
 Root      6 not converged, maximum delta is    0.000948894212507
 Root      7 not converged, maximum delta is    0.004045131576299
 Root      8 not converged, maximum delta is    0.153707808193992
 Root      9 not converged, maximum delta is    0.004781289809870
 No map to state     10
 Excitation Energies [eV] at current iteration:
 Root      1 :     5.368760563739081   Change is   -0.000496528196482
 Root      2 :     5.387419278498683   Change is   -0.002298297979015
 Root      3 :     5.523861923641975   Change is   -0.001239215486768
 Root      4 :     5.865318933177877   Change is   -0.000057999626495
 Root      5 :     5.953918682139860   Change is   -0.000301459507664
 Root      6 :     6.213071944874139   Change is   -0.000084358280074
 Root      7 :     6.305172378707271   Change is   -0.001074407437030
 Root      8 :     6.646266511037983   Change is   -0.068549020065979
 Root      9 :     6.753734385345043   Change is   -0.000275848617450
 Root     10 :     6.887206450889079
 Iteration     5 Dimension   120 NMult   100 NNew     20
 CISAX will form    20 AO SS matrices at one time.
 NMat=    20 NSing=    20 JSym2X=-1.
 Root      1 not converged, maximum delta is    0.000326216856340
 Root      2 not converged, maximum delta is    0.001950991607689
 Root      3 not converged, maximum delta is    0.000917269247322
 Root      4 not converged, maximum delta is    0.000134863094871
 Root      5 not converged, maximum delta is    0.000620665842188
 Root      6 not converged, maximum delta is    0.000169102303167
 Root      7 not converged, maximum delta is    0.000869963707543
 Root      8 not converged, maximum delta is    0.100536195280039
 Root      9 not converged, maximum delta is    0.002634177058100
 Root     10 not converged, maximum delta is    0.081690906193648
 Excitation Energies [eV] at current iteration:
 Root      1 :     5.368745854194549   Change is   -0.000014709544533
 Root      2 :     5.387158047596100   Change is   -0.000261230902583
 Root      3 :     5.523782497360388   Change is   -0.000079426281586
 Root      4 :     5.865316722300897   Change is   -0.000002210876980
 Root      5 :     5.953901154681398   Change is   -0.000017527458463
 Root      6 :     6.213068189277710   Change is   -0.000003755596430
 Root      7 :     6.305113345921430   Change is   -0.000059032785840
 Root      8 :     6.620129549468485   Change is   -0.026136961569498
 Root      9 :     6.753691161202512   Change is   -0.000043224142531
 Root     10 :     6.810875638354125   Change is   -0.076330812534953
 Iteration     6 Dimension   140 NMult   120 NNew     20
 CISAX will form    20 AO SS matrices at one time.
 NMat=    20 NSing=    20 JSym2X=-1.
 Root      1 not converged, maximum delta is    0.000021387715344
 Root      2 not converged, maximum delta is    0.000410338282206
 Root      3 not converged, maximum delta is    0.000146625662819
 Root      4 not converged, maximum delta is    0.000012873507036
 Root      5 not converged, maximum delta is    0.000051192530116
 Root      6 not converged, maximum delta is    0.000023513479866
 Root      7 not converged, maximum delta is    0.000075971570889
 Root      8 not converged, maximum delta is    0.011299877167183
 Root      9 not converged, maximum delta is    0.000995397103933
 Root     10 not converged, maximum delta is    0.015857170079702
 Excitation Energies [eV] at current iteration:
 Root      1 :     5.368745491583324   Change is   -0.000000362611225
 Root      2 :     5.387139606304612   Change is   -0.000018441291487
 Root      3 :     5.523777988845901   Change is   -0.000004508514488
 Root      4 :     5.865316636523408   Change is   -0.000000085777489
 Root      5 :     5.953900482266384   Change is   -0.000000672415013
 Root      6 :     6.213068028081533   Change is   -0.000000161196176
 Root      7 :     6.305111091142616   Change is   -0.000002254778814
 Root      8 :     6.615687606271341   Change is   -0.004441943197144
 Root      9 :     6.753685660988746   Change is   -0.000005500213766
 Root     10 :     6.800839936862731   Change is   -0.010035701491394
 Iteration     7 Dimension   160 NMult   140 NNew     20
 CISAX will form    20 AO SS matrices at one time.
 NMat=    20 NSing=    20 JSym2X=-1.
 Root      1 not converged, maximum delta is    0.000005631744721
 Root      2 not converged, maximum delta is    0.000060944736502
 Root      3 not converged, maximum delta is    0.000032336956129
 Root      4 not converged, maximum delta is    0.000002674039097
 Root      5 not converged, maximum delta is    0.000011117892920
 Root      6 not converged, maximum delta is    0.000005407520917
 Root      7 not converged, maximum delta is    0.000019697863110
 Root      8 not converged, maximum delta is    0.001304876152730
 Root      9 not converged, maximum delta is    0.000251216081780
 Root     10 not converged, maximum delta is    0.001898583693945
 Excitation Energies [eV] at current iteration:
 Root      1 :     5.368745480836520   Change is   -0.000000010746803
 Root      2 :     5.387138698166963   Change is   -0.000000908137650
 Root      3 :     5.523777759044405   Change is   -0.000000229801496
 Root      4 :     5.865316632986644   Change is   -0.000000003536764
 Root      5 :     5.953900455943081   Change is   -0.000000026323303
 Root      6 :     6.213068020918271   Change is   -0.000000007163262
 Root      7 :     6.305110980236774   Change is   -0.000000110905843
 Root      8 :     6.615340972224185   Change is   -0.000346634047156
 Root      9 :     6.753685186983523   Change is   -0.000000474005223
 Root     10 :     6.800122502473203   Change is   -0.000717434389528
 Iteration     8 Dimension   180 NMult   160 NNew     20
 CISAX will form    20 AO SS matrices at one time.
 NMat=    20 NSing=    20 JSym2X=-1.
 Root      1 has converged.
 Root      2 not converged, maximum delta is    0.000018489594900
 Root      3 not converged, maximum delta is    0.000008415493940
 Root      4 has converged.
 Root      5 not converged, maximum delta is    0.000001593651936
 Root      6 has converged.
 Root      7 not converged, maximum delta is    0.000002894096326
 Root      8 not converged, maximum delta is    0.000610546771441
 Root      9 not converged, maximum delta is    0.000044997788396
 Root     10 not converged, maximum delta is    0.000850977464638
 Excitation Energies [eV] at current iteration:
 Root      1 :     5.368745480529387   Change is   -0.000000000307133
 Root      2 :     5.387138651544171   Change is   -0.000000046622792
 Root      3 :     5.523777746758784   Change is   -0.000000012285622
 Root      4 :     5.865316632836982   Change is   -0.000000000149662
 Root      5 :     5.953900454854235   Change is   -0.000000001088847
 Root      6 :     6.213068020513616   Change is   -0.000000000404656
 Root      7 :     6.305110975024517   Change is   -0.000000005212256
 Root      8 :     6.615315182347398   Change is   -0.000025789876786
 Root      9 :     6.753685155251220   Change is   -0.000000031732302
 Root     10 :     6.800062749351492   Change is   -0.000059753121711
 Iteration     9 Dimension   194 NMult   180 NNew     14
 CISAX will form    14 AO SS matrices at one time.
 NMat=    14 NSing=    14 JSym2X=-1.
 Root      1 has converged.
 Root      2 not converged, maximum delta is    0.000002307555455
 Root      3 has converged.
 Root      4 has converged.
 Root      5 has converged.
 Root      6 has converged.
 Root      7 has converged.
 Root      8 not converged, maximum delta is    0.000152052807934
 Root      9 not converged, maximum delta is    0.000005774063146
 Root     10 not converged, maximum delta is    0.000312584539251
 Excitation Energies [eV] at current iteration:
 Root      1 :     5.368745480524825   Change is   -0.000000000004563
 Root      2 :     5.387138649594437   Change is   -0.000000001949734
 Root      3 :     5.523777746249579   Change is   -0.000000000509204
 Root      4 :     5.865316632836562   Change is   -0.000000000000421
 Root      5 :     5.953900454803009   Change is   -0.000000000051225
 Root      6 :     6.213068020509501   Change is   -0.000000000004115
 Root      7 :     6.305110974755852   Change is   -0.000000000268665
 Root      8 :     6.615313363653720   Change is   -0.000001818693679
 Root      9 :     6.753685153504308   Change is   -0.000000001746912
 Root     10 :     6.800056966682011   Change is   -0.000005782669482
 Iteration    10 Dimension   202 NMult   194 NNew      8
 CISAX will form     8 AO SS matrices at one time.
 NMat=     8 NSing=     8 JSym2X=-1.
 Root      1 has converged.
 Root      2 has converged.
 Root      3 has converged.
 Root      4 has converged.
 Root      5 has converged.
 Root      6 has converged.
 Root      7 has converged.
 Root      8 not converged, maximum delta is    0.000036694178588
 Root      9 has converged.
 Root     10 not converged, maximum delta is    0.000091588509186
 Excitation Energies [eV] at current iteration:
 Root      1 :     5.368745480524764   Change is   -0.000000000000061
 Root      2 :     5.387138649519954   Change is   -0.000000000074484
 Root      3 :     5.523777746247987   Change is   -0.000000000001593
 Root      4 :     5.865316632836576   Change is    0.000000000000014
 Root      5 :     5.953900454802927   Change is   -0.000000000000083
 Root      6 :     6.213068020509329   Change is   -0.000000000000172
 Root      7 :     6.305110974753844   Change is   -0.000000000002008
 Root      8 :     6.615313238249130   Change is   -0.000000125404589
 Root      9 :     6.753685153404070   Change is   -0.000000000100238
 Root     10 :     6.800056534037499   Change is   -0.000000432644511
 Iteration    11 Dimension   206 NMult   202 NNew      4
 CISAX will form     4 AO SS matrices at one time.
 NMat=     4 NSing=     4 JSym2X=-1.
 Root      1 has converged.
 Root      2 has converged.
 Root      3 has converged.
 Root      4 has converged.
 Root      5 has converged.
 Root      6 has converged.
 Root      7 has converged.
 Root      8 not converged, maximum delta is    0.000007957260666
 Root      9 has converged.
 Root     10 not converged, maximum delta is    0.000024689199248
 Excitation Energies [eV] at current iteration:
 Root      1 :     5.368745480524809   Change is    0.000000000000045
 Root      2 :     5.387138649519724   Change is   -0.000000000000229
 Root      3 :     5.523777746247704   Change is   -0.000000000000282
 Root      4 :     5.865316632836533   Change is   -0.000000000000042
 Root      5 :     5.953900454802927   Change is    0.000000000000000
 Root      6 :     6.213068020509355   Change is    0.000000000000026
 Root      7 :     6.305110974753831   Change is   -0.000000000000013
 Root      8 :     6.615313230164581   Change is   -0.000000008084550
 Root      9 :     6.753685153404021   Change is   -0.000000000000049
 Root     10 :     6.800056506340736   Change is   -0.000000027696763
 Iteration    12 Dimension   210 NMult   206 NNew      4
 CISAX will form     4 AO SS matrices at one time.
 NMat=     4 NSing=     4 JSym2X=-1.
 Root      1 has converged.
 Root      2 has converged.
 Root      3 has converged.
 Root      4 has converged.
 Root      5 has converged.
 Root      6 has converged.
 Root      7 has converged.
 Root      8 not converged, maximum delta is    0.000001810821388
 Root      9 has converged.
 Root     10 not converged, maximum delta is    0.000007161100953
 Excitation Energies [eV] at current iteration:
 Root      1 :     5.368745480524686   Change is   -0.000000000000122
 Root      2 :     5.387138649519327   Change is   -0.000000000000397
 Root      3 :     5.523777746247363   Change is   -0.000000000000342
 Root      4 :     5.865316632836576   Change is    0.000000000000042
 Root      5 :     5.953900454802913   Change is   -0.000000000000014
 Root      6 :     6.213068020509329   Change is   -0.000000000000026
 Root      7 :     6.305110974753856   Change is    0.000000000000026
 Root      8 :     6.615313229624224   Change is   -0.000000000540357
 Root      9 :     6.753685153404057   Change is    0.000000000000037
 Root     10 :     6.800056504282156   Change is   -0.000000002058580
 Iteration    13 Dimension   214 NMult   210 NNew      4
 CISAX will form     4 AO SS matrices at one time.
 NMat=     4 NSing=     4 JSym2X=-1.
 Root      1 has converged.
 Root      2 has converged.
 Root      3 has converged.
 Root      4 has converged.
 Root      5 has converged.
 Root      6 has converged.
 Root      7 has converged.
 Root      8 has converged.
 Root      9 has converged.
 Root     10 not converged, maximum delta is    0.000001647420947
 Excitation Energies [eV] at current iteration:
 Root      1 :     5.368745480524764   Change is    0.000000000000077
 Root      2 :     5.387138649519144   Change is   -0.000000000000183
 Root      3 :     5.523777746247228   Change is   -0.000000000000134
 Root      4 :     5.865316632836548   Change is   -0.000000000000028
 Root      5 :     5.953900454802913   Change is    0.000000000000000
 Root      6 :     6.213068020509289   Change is   -0.000000000000040
 Root      7 :     6.305110974753779   Change is   -0.000000000000078
 Root      8 :     6.615313229588621   Change is   -0.000000000035603
 Root      9 :     6.753685153404046   Change is   -0.000000000000012
 Root     10 :     6.800056504112157   Change is   -0.000000000169999
 Iteration    14 Dimension   216 NMult   214 NNew      2
 CISAX will form     2 AO SS matrices at one time.
 NMat=     2 NSing=     2 JSym2X=-1.
 Root      1 has converged.
 Root      2 has converged.
 Root      3 has converged.
 Root      4 has converged.
 Root      5 has converged.
 Root      6 has converged.
 Root      7 has converged.
 Root      8 has converged.
 Root      9 has converged.
 Root     10 has converged.
 Excitation Energies [eV] at current iteration:
 Root      1 :     5.368745480524840   Change is    0.000000000000076
 Root      2 :     5.387138649519129   Change is   -0.000000000000015
 Root      3 :     5.523777746247168   Change is   -0.000000000000060
 Root      4 :     5.865316632836533   Change is   -0.000000000000014
 Root      5 :     5.953900454802872   Change is   -0.000000000000042
 Root      6 :     6.213068020509289   Change is    0.000000000000000
 Root      7 :     6.305110974753805   Change is    0.000000000000026
 Root      8 :     6.615313229587230   Change is   -0.000000000001392
 Root      9 :     6.753685153404046   Change is    0.000000000000000
 Root     10 :     6.800056504100056   Change is   -0.000000000012102
 Convergence achieved on expansion vectors.
 ***********************************************************************
 Excited states from <AA,BB:AA,BB> singles matrix:
 ***********************************************************************
 
 1PDM for each excited state written to RWF  633
 Ground to excited state transition densities written to RWF  633
 Ground to excited state transition electric dipole moments (Au):
       state          X           Y           Z        Dip. S.      Osc.
         1         0.0000     -0.0000      0.0689      0.0048      0.0006
         2         1.4700     -0.0575     -0.0000      2.1642      0.2856
         3        -0.1441     -0.3000      0.0000      0.1108      0.0150
         4        -0.0000     -0.0000     -0.2436      0.0594      0.0085
         5         0.0000     -0.0000     -0.1493      0.0223      0.0033
         6         0.0000     -0.0000      0.0942      0.0089      0.0014
         7        -0.0000      0.0000     -0.0786      0.0062      0.0010
         8         0.2245     -1.6391      0.0000      2.7370      0.4436
         9         0.0000     -0.0000      0.1311      0.0172      0.0028
        10        -0.0472      0.3244      0.0000      0.1074      0.0179
 Ground to excited state transition velocity dipole moments (Au):
       state          X           Y           Z        Dip. S.      Osc.
         1        -0.0000     -0.0000     -0.0140      0.0002      0.0007
         2        -0.2886      0.0101      0.0000      0.0834      0.2807
         3         0.0223      0.0655      0.0000      0.0048      0.0157
         4         0.0000      0.0000      0.0506      0.0026      0.0079
         5        -0.0000      0.0000      0.0346      0.0012      0.0036
         6        -0.0000      0.0000     -0.0196      0.0004      0.0011
         7        -0.0000     -0.0000      0.0229      0.0005      0.0015
         8        -0.0537      0.3917     -0.0000      0.1563      0.4286
         9        -0.0000      0.0000     -0.0348      0.0012      0.0033
        10         0.0051     -0.0838     -0.0000      0.0070      0.0188
 Ground to excited state transition magnetic dipole moments (Au):
       state          X           Y           Z
         1         0.5520     -0.2329     -0.0000
         2        -0.0000      0.0000     -0.3824
         3        -0.0000     -0.0000     -0.7058
         4         0.3473     -0.0658     -0.0000
         5        -0.4475     -0.4611      0.0000
         6        -0.1084      0.3535      0.0000
         7         0.9013     -0.0673     -0.0000
         8         0.0000      0.0000      0.1396
         9        -0.3746      0.0912     -0.0000
        10        -0.0000      0.0000      0.5008
 Ground to excited state transition velocity quadrupole moments (Au):
       state          XX          YY          ZZ          XY          XZ          YZ
         1        -0.0000     -0.0000     -0.0000     -0.0000      0.0209      0.1503
         2        -0.1362      0.0137      0.0124     -0.5616     -0.0000     -0.0000
         3         0.1119     -0.1561     -0.0177      0.2628      0.0000     -0.0000
         4         0.0000      0.0000     -0.0000      0.0000      0.1173      0.2281
         5         0.0000     -0.0000      0.0000     -0.0000      0.1469     -0.1442
         6        -0.0000      0.0000      0.0000     -0.0000     -0.3705     -0.1173
         7        -0.0000     -0.0000      0.0000      0.0000     -0.0495      0.2631
         8         0.5865     -0.4089      0.0352     -0.0159     -0.0000      0.0000
         9        -0.0000     -0.0000     -0.0000      0.0000     -0.0742     -0.3868
        10         0.4286      0.3217      0.0846     -0.4137     -0.0000     -0.0000
 <0|del|b> * <b|rxdel|0> + <0|del|b> * <b|delr+rdel|0>
 Rotatory Strengths (R) in cgs (10**-40 erg-esu-cm/Gauss)
       state          XX          YY          ZZ    R(velocity)    E-M Angle
         1         0.0000     -0.0000     -0.0000     -0.0000       90.00
         2        -0.0000      0.0000      0.0000      0.0000       90.00
         3        -0.0000     -0.0000      0.0000     -0.0000       90.00
         4         0.0000      0.0000      0.0000      0.0000       90.00
         5        -0.0000      0.0000     -0.0000     -0.0000       90.00
         6         0.0000     -0.0000     -0.0000      0.0000       90.00
         7         0.0000     -0.0000      0.0000     -0.0000       90.00
         8         0.0000     -0.0000      0.0000      0.0000       90.00
         9         0.0000      0.0000      0.0000      0.0000       90.00
        10        -0.0000     -0.0000     -0.0000     -0.0000       90.00
 1/2[<0|r|b>*<b|rxdel|0> + (<0|rxdel|b>*<b|r|0>)*]
 Rotatory Strengths (R) in cgs (10**-40 erg-esu-cm/Gauss)
       state          XX          YY          ZZ     R(length)
         1        -0.0000     -0.0000      0.0000     -0.0000
         2         0.0000      0.0000     -0.0000      0.0000
         3        -0.0000     -0.0000      0.0000      0.0000
         4         0.0000     -0.0000     -0.0000      0.0000
         5         0.0000     -0.0000      0.0000     -0.0000
         6         0.0000      0.0000     -0.0000      0.0000
         7         0.0000      0.0000     -0.0000      0.0000
         8        -0.0000      0.0000     -0.0000      0.0000
         9         0.0000      0.0000      0.0000      0.0000
        10        -0.0000     -0.0000     -0.0000     -0.0000
  1/2[<0|del|b>*<b|r|0> + (<0|r|b>*<b|del|0>)*] (Au)
       state          X           Y           Z        Dip. S.   Osc.(frdel)
         1        -0.0000      0.0000     -0.0010      0.0010      0.0006
         2        -0.4242     -0.0006     -0.0000      0.4248      0.2832
         3        -0.0032     -0.0196      0.0000      0.0229      0.0152
         4        -0.0000     -0.0000     -0.0123      0.0123      0.0082
         5        -0.0000     -0.0000     -0.0052      0.0052      0.0034
         6        -0.0000     -0.0000     -0.0018      0.0018      0.0012
         7         0.0000     -0.0000     -0.0018      0.0018      0.0012
         8        -0.0121     -0.6420     -0.0000      0.6540      0.4360
         9        -0.0000     -0.0000     -0.0046      0.0046      0.0030
        10        -0.0002     -0.0272     -0.0000      0.0274      0.0183

 Excitation energies and oscillator strengths:
 
 Excited State   1:      Singlet-A"     5.3687 eV  230.94 nm  f=0.0006  <S**2>=0.000
      34 -> 36         0.66554
      34 -> 42        -0.11829
      34 -> 44        -0.13206
 
 Excited State   2:      Singlet-A'     5.3871 eV  230.15 nm  f=0.2856  <S**2>=0.000
      33 -> 39         0.13532
      35 -> 36         0.68700
 This state for optimization and/or second-order correction.
 Total Energy, E(TD-HF/TD-DFT) =  -467.034548877    
 Copying the excited state density for this state as the 1-particle RhoCI density.
 
 Excited State   3:      Singlet-A'     5.5238 eV  224.46 nm  f=0.0150  <S**2>=0.000
      33 -> 36        -0.35900
      35 -> 39         0.59308
 
 Excited State   4:      Singlet-A"     5.8653 eV  211.39 nm  f=0.0085  <S**2>=0.000
      35 -> 37         0.52807
      35 -> 38        -0.41595
      35 -> 43        -0.11821
 
 Excited State   5:      Singlet-A"     5.9539 eV  208.24 nm  f=0.0033  <S**2>=0.000
      34 -> 39         0.67652
 
 Excited State   6:      Singlet-A"     6.2131 eV  199.55 nm  f=0.0014  <S**2>=0.000
      31 -> 37        -0.10349
      35 -> 37         0.40562
      35 -> 38         0.52965
 
 Excited State   7:      Singlet-A"     6.3051 eV  196.64 nm  f=0.0010  <S**2>=0.000
      30 -> 44        -0.11338
      32 -> 36         0.64569
      34 -> 42         0.11527
      34 -> 44         0.13938
 
 Excited State   8:      Singlet-A'     6.6153 eV  187.42 nm  f=0.4436  <S**2>=0.000
      33 -> 36         0.52609
      33 -> 39        -0.11304
      34 -> 38         0.10992
      35 -> 39         0.31004
      35 -> 42         0.22219
      35 -> 44         0.13153
 
 Excited State   9:      Singlet-A"     6.7537 eV  183.58 nm  f=0.0028  <S**2>=0.000
      35 -> 37        -0.12689
      35 -> 40         0.56289
      35 -> 41        -0.17473
      35 -> 43        -0.26242
      35 -> 45         0.17480
 
 Excited State  10:      Singlet-A'     6.8001 eV  182.33 nm  f=0.0179  <S**2>=0.000
      33 -> 36        -0.21324
      33 -> 42         0.10812
      35 -> 39        -0.17856
      35 -> 42         0.57298
      35 -> 44         0.20805
 SavETr:  write IOETrn=   770 NScale= 10 NData=  16 NLR=1 NState=   10 LETran=     190.
 The selected state is a singlet.
 CISGrd: IGrad=3 NXY=2 DFT=T
 CISAX will form     1 AO SS matrices at one time.
 NMat=     1 NSing=     1 JSym2X=-1.
 Leave Link  914 at Tue Nov 22 14:20:23 2022, MaxMem=  1073741824 cpu:            2606.4 elap:              52.2
 (Enter /shared/gaussian/g16.b01/AVX2/g16/l1002.exe)
 Minotr:  Closed shell wavefunction.
          Computing CIS/TDA/TD derivatives.
          Using Z-Vector for PSCF gradient.
          Skipping F1 and S1 gradient terms here.
          IDoAtm=111111111111111
          Frozen-core window.
          Direct CPHF calculation.
          Differentiating once with respect to electric field.
                with respect to dipole field.
          Differentiating once with respect to nuclear coordinates.
          Requested convergence is 1.0D-10 RMS, and 1.0D-09 maximum.
          NewPWx=F KeepS1=T KeepF1=T KeepIn=T MapXYZ=F SortEE=F KeepMc=T.
 Two-electron integral symmetry used by symmetrizing perturbed Fock matrices.
          MDV=    1073741824 using IRadAn=       5.
          Solving linear equations separately, MaxMat=     350.
          There are     1 degrees of freedom in the 1st order CPHF.  IDoFFX=0 NUNeed=     1.
 FoFJK:  IHMeth= 1 ICntrl=       0 DoSepK=T KAlg= 0 I1Cent=           0 FoldK=F
 IRaf=         1 NMat=       1 IRICut=       1 DoRegI=T DoRafI=F ISym2E=-1 IDoP0=0 IntGTp=1.
 FoFCou: FMM=F IPFlag=           0 FMFlag=      100000 FMFlg1=           0
         NFxFlg=           0 DoJE=T BraDBF=F KetDBF=F FulRan=T
         wScrn=  0.000000 ICntrl=       500 IOpCl=  0 I1Cent=           0 NGrid=           0
         NMat0=    1 NMatS0=      1 NMatT0=    0 NMatD0=    1 NMtDS0=    0 NMtDT0=    0
 Petite list used in FoFCou.
 LinEq1:  Iter=  0 NonCon=     1 RMS=5.07D-03 Max=1.48D-01 NDo=     1
 AX will form     1 AO Fock derivatives at one time.
 LinEq1:  Iter=  1 NonCon=     1 RMS=2.39D-03 Max=9.78D-02 NDo=     1
 LinEq1:  Iter=  2 NonCon=     1 RMS=1.23D-03 Max=2.80D-02 NDo=     1
 LinEq1:  Iter=  3 NonCon=     1 RMS=4.66D-04 Max=1.24D-02 NDo=     1
 LinEq1:  Iter=  4 NonCon=     1 RMS=2.30D-04 Max=5.21D-03 NDo=     1
 LinEq1:  Iter=  5 NonCon=     1 RMS=1.36D-04 Max=5.49D-03 NDo=     1
 LinEq1:  Iter=  6 NonCon=     1 RMS=7.64D-05 Max=3.81D-03 NDo=     1
 LinEq1:  Iter=  7 NonCon=     1 RMS=3.79D-05 Max=1.25D-03 NDo=     1
 LinEq1:  Iter=  8 NonCon=     1 RMS=1.77D-05 Max=4.04D-04 NDo=     1
 LinEq1:  Iter=  9 NonCon=     1 RMS=1.04D-05 Max=2.77D-04 NDo=     1
 LinEq1:  Iter= 10 NonCon=     1 RMS=3.31D-06 Max=6.88D-05 NDo=     1
 LinEq1:  Iter= 11 NonCon=     1 RMS=1.84D-06 Max=3.61D-05 NDo=     1
 LinEq1:  Iter= 12 NonCon=     1 RMS=5.77D-07 Max=1.52D-05 NDo=     1
 LinEq1:  Iter= 13 NonCon=     1 RMS=1.85D-07 Max=6.04D-06 NDo=     1
 LinEq1:  Iter= 14 NonCon=     1 RMS=9.64D-08 Max=2.49D-06 NDo=     1
 LinEq1:  Iter= 15 NonCon=     1 RMS=4.12D-08 Max=8.33D-07 NDo=     1
 LinEq1:  Iter= 16 NonCon=     1 RMS=1.72D-08 Max=4.25D-07 NDo=     1
 LinEq1:  Iter= 17 NonCon=     1 RMS=6.13D-09 Max=1.15D-07 NDo=     1
 LinEq1:  Iter= 18 NonCon=     1 RMS=3.12D-09 Max=7.26D-08 NDo=     1
 LinEq1:  Iter= 19 NonCon=     1 RMS=1.13D-09 Max=2.70D-08 NDo=     1
 LinEq1:  Iter= 20 NonCon=     1 RMS=3.38D-10 Max=6.46D-09 NDo=     1
 LinEq1:  Iter= 21 NonCon=     1 RMS=1.98D-10 Max=6.55D-09 NDo=     1
 LinEq1:  Iter= 22 NonCon=     0 RMS=5.44D-11 Max=8.80D-10 NDo=     1
 Linear equations converged to 1.000D-10 1.000D-09 after    22 iterations.
          There are     1 degrees of freedom in the 1st order CPHF.  IDoFFX=0 NUNeed=     1.
 End of Minotr F.D. properties file   721 does not exist.
 End of Minotr F.D. properties file   722 does not exist.
 End of Minotr F.D. properties file   788 does not exist.
 Leave Link 1002 at Tue Nov 22 14:20:47 2022, MaxMem=  1073741824 cpu:            1194.7 elap:              24.1
 (Enter /shared/gaussian/g16.b01/AVX2/g16/l1101.exe)
 Using compressed Sx but separate Hx and Fx, NAtomX=    15.
 Will process     16 centers per pass.
 Leave Link 1101 at Tue Nov 22 14:20:48 2022, MaxMem=  1073741824 cpu:              10.9 elap:               0.2
 (Enter /shared/gaussian/g16.b01/AVX2/g16/l1102.exe)
 Use density number 6.
 Symmetrizing basis deriv contribution to polar:
 IMax=3 JMax=2 DiffMx= 0.00D+00
 Leave Link 1102 at Tue Nov 22 14:20:48 2022, MaxMem=  1073741824 cpu:               0.9 elap:               0.0
 (Enter /shared/gaussian/g16.b01/AVX2/g16/l1110.exe)
 Forming Gx(P) for the SCF density, NAtomX=    15.
 Integral derivatives from FoFJK, PRISM(SPDF).
 Do as many integral derivatives as possible in FoFJK.
 G2DrvN: MDV=    1073740518.
 G2DrvN: will do    16 centers at a time, making    1 passes.
 Calling FoFCou, ICntrl=  3107 FMM=F I1Cent=   0 AccDes= 0.00D+00.
 FoFJK:  IHMeth= 1 ICntrl=    3107 DoSepK=T KAlg= 0 I1Cent=           0 FoldK=F
 IRaf=         1 NMat=       1 IRICut=       1 DoRegI=T DoRafI=F ISym2E= 1 IDoP0=0 IntGTp=1.
 FoFCou: FMM=F IPFlag=           0 FMFlag=      100000 FMFlg1=           0
         NFxFlg=           0 DoJE=F BraDBF=F KetDBF=F FulRan=T
         wScrn=  0.000000 ICntrl=      3507 IOpCl=  0 I1Cent=           0 NGrid=           0
         NMat0=    1 NMatS0=      1 NMatT0=    0 NMatD0=    1 NMtDS0=    0 NMtDT0=    0
 Petite list used in FoFCou.
 Forming Gx(P) for generalized density number  6 NAtomX=    15.
 Integral derivatives from FoFJK, PRISM(SPDF).
 Do as many integral derivatives as possible in FoFJK.
 G2DrvN: MDV=    1073740518.
 G2DrvN: will do    16 centers at a time, making    1 passes.
 Calling FoFCou, ICntrl=  3107 FMM=F I1Cent=   0 AccDes= 0.00D+00.
 Forming Gx(T) for CIS/TDA/TD state  2 NAtomX=    15.
 Integral derivatives from FoFJK, PRISM(SPDF).
 Do as many integral derivatives as possible in FoFJK.
 G2DrvN: MDV=    1073740518.
 G2DrvN: will do    16 centers at a time, making    1 passes.
 Calling FoFCou, ICntrl=  3107 FMM=F I1Cent=   0 AccDes= 0.00D+00.
 End of G2Drv F.D. properties file   721 does not exist.
 End of G2Drv F.D. properties file   722 does not exist.
 End of G2Drv F.D. properties file   788 does not exist.
 Leave Link 1110 at Tue Nov 22 14:21:02 2022, MaxMem=  1073741824 cpu:             713.9 elap:              14.3
 (Enter /shared/gaussian/g16.b01/AVX2/g16/l1002.exe)
 Minotr:  Closed shell wavefunction.
          IDoAtm=111111111111111
          Frozen-core window.
          Direct CPHF calculation.
          Differentiating once with respect to electric field.
                with respect to dipole field.
          Differentiating once with respect to nuclear coordinates.
          Requested convergence is 1.0D-08 RMS, and 1.0D-07 maximum.
          Secondary convergence is 1.0D-12 RMS, and 1.0D-12 maximum.
          NewPWx=T KeepS1=T KeepF1=T KeepIn=T MapXYZ=F SortEE=F KeepMc=T.
         4597 words used for storage of precomputed grid.
 Two-electron integrals replicated using symmetry.
          MDV=    1073741824 using IRadAn=       1.
          Solving linear equations simultaneously, MaxMat=     350.
 FoF2E skips out because all densities are zero.
 CalDSu exits because no D1Ps are significant.
 FoFJK:  IHMeth= 1 ICntrl=       0 DoSepK=T KAlg= 0 I1Cent=           0 FoldK=F
 IRaf=         1 NMat=      45 IRICut=       1 DoRegI=T DoRafI=F ISym2E= 2 IDoP0=3 IntGTp=3.
 FoFCou: FMM=F IPFlag=           0 FMFlag=      100000 FMFlg1=           0
         NFxFlg=           0 DoJE=F BraDBF=F KetDBF=F FulRan=T
         wScrn=  0.000000 ICntrl=       500 IOpCl=  0 I1Cent=           0 NGrid=           0
         NMat0=   45 NMatS0=     45 NMatT0=    0 NMatD0=   45 NMtDS0=    0 NMtDT0=    0
 Integrals replicated using symmetry in FoFCou.
          There are    48 degrees of freedom in the 1st order CPHF.  IDoFFX=6 NUNeed=    48.
     45 vectors produced by pass  0 Test12= 1.57D-14 2.08D-09 XBig12= 8.08D+01 6.10D+00.
 AX will form    45 AO Fock derivatives at one time.
     45 vectors produced by pass  1 Test12= 1.57D-14 2.08D-09 XBig12= 1.51D+01 6.59D-01.
     45 vectors produced by pass  2 Test12= 1.57D-14 2.08D-09 XBig12= 2.65D-01 8.91D-02.
     45 vectors produced by pass  3 Test12= 1.57D-14 2.08D-09 XBig12= 2.50D-03 8.01D-03.
     45 vectors produced by pass  4 Test12= 1.57D-14 2.08D-09 XBig12= 1.38D-05 5.82D-04.
     45 vectors produced by pass  5 Test12= 1.57D-14 2.08D-09 XBig12= 7.98D-08 4.35D-05.
     44 vectors produced by pass  6 Test12= 1.57D-14 2.08D-09 XBig12= 3.93D-10 2.43D-06.
     18 vectors produced by pass  7 Test12= 1.57D-14 2.08D-09 XBig12= 1.74D-12 1.64D-07.
      3 vectors produced by pass  8 Test12= 1.57D-14 2.08D-09 XBig12= 8.54D-15 1.38D-08.
 InvSVY:  IOpt=1 It=  1 EMax= 5.33D-15
 Solved reduced A of dimension   335 with    48 vectors.
 FullF1:  Do perturbations      1 to      48.
 Isotropic polarizability for W=    0.000000       90.09 Bohr**3.
 Saving first derivative matrices.
 End of Minotr F.D. properties file   721 does not exist.
 End of Minotr F.D. properties file   722 does not exist.
 End of Minotr F.D. properties file   788 does not exist.
 Leave Link 1002 at Tue Nov 22 14:21:21 2022, MaxMem=  1073741824 cpu:             932.6 elap:              18.7
 (Enter /shared/gaussian/g16.b01/AVX2/g16/l1014.exe)
 This link is doing    48 degrees of freedom
 Form MO integral derivatives with frozen-active canonical formalism.
 CISSec: MDV=    1073734794
 Doing TD-HF/TD-DFT second derivatives, IDoFFX=6 IOneXC=4 IRadAn=         1.
 Frozen orbitals handled with amplitudes over full window.
 Frozen-core window:  NFC=  10 NFV=   0.
 Symmetry is being used.
 Would need an additional           429900000 words for in-memory AO integral storage.
 The selected state is a singlet.
 CISGrX: IGrad=3 NXY=2 DFT=T
 CISAX will form    48 AO SS matrices at one time.
 NMat=    48 NSing=    48 JSym2X= 2.
 FoFJK:  IHMeth= 1 ICntrl=       0 DoSepK=T KAlg= 0 I1Cent=           0 FoldK=F
 IRaf=         1 NMat=      96 IRICut=       1 DoRegI=T DoRafI=F ISym2E= 2 IDoP0=3 IntGTp=3.
 FoFCou: FMM=F IPFlag=           0 FMFlag=      100000 FMFlg1=           0
         NFxFlg=           0 DoJE=F BraDBF=F KetDBF=F FulRan=T
         wScrn=  0.000000 ICntrl=       500 IOpCl=  0 I1Cent=           0 NGrid=           0
         NMat0=   48 NMatS0=     48 NMatT0=    0 NMatD0=   48 NMtDS0=    0 NMtDT0=    0
 Integrals replicated using symmetry in FoFCou.
     45 vectors produced by pass  0 Test12= 2.24D-14 2.08D-09 XBig12= 5.32D+01 5.02D+00.
 AX will form    45 AO Fock derivatives at one time.
     45 vectors produced by pass  1 Test12= 2.24D-14 2.08D-09 XBig12= 2.26D+00 3.98D-01.
     45 vectors produced by pass  2 Test12= 2.24D-14 2.08D-09 XBig12= 4.62D-01 1.47D-01.
     45 vectors produced by pass  3 Test12= 2.24D-14 2.08D-09 XBig12= 9.03D-03 2.96D-02.
     45 vectors produced by pass  4 Test12= 2.24D-14 2.08D-09 XBig12= 1.48D-04 1.75D-03.
     45 vectors produced by pass  5 Test12= 2.24D-14 2.08D-09 XBig12= 2.27D-06 2.16D-04.
     45 vectors produced by pass  6 Test12= 2.24D-14 2.08D-09 XBig12= 2.70D-08 2.42D-05.
     37 vectors produced by pass  7 Test12= 2.24D-14 2.08D-09 XBig12= 2.61D-10 2.99D-06.
     25 vectors produced by pass  8 Test12= 2.24D-14 2.08D-09 XBig12= 2.45D-12 2.67D-07.
      8 vectors produced by pass  9 Test12= 2.24D-14 2.08D-09 XBig12= 2.45D-14 3.25D-08.
      1 vectors produced by pass 10 Test12= 2.24D-14 2.08D-09 XBig12= 2.95D-16 3.59D-09.
 InvSVY:  IOpt=1 It=  1 EMax= 7.39D-15
 Solved reduced A of dimension   386 with    48 vectors.
 Tx.T = -2.59D-05 for pert.     2
 Tx.T = -2.55D-05 for pert.     1
 Tx.T = -3.25D-06 for pert.     8
 Tx.T =  2.33D-06 for pert.     5
 Tx.T = -2.16D-06 for pert.    20
 Tx.T =  2.03D-06 for pert.    17
 Tx.T =  1.75D-06 for pert.    11
 Tx.T =  1.14D-06 for pert.    19
 Tx.T =  1.13D-06 for pert.    37
 Tx.T = -1.07D-06 for pert.    16
 SavDET:  read IOETrn=   770 NScale= 10 NData=  16 NLR=1 NState=   10 NDeriv=    0 LETran=     190.
 SavDET: write IOETrn=   770 NScale= 10 NData=  16 NLR=1 NState=   10 NDeriv=   48 LETran=     958.
 TDDxLx will form    48 C1x/S1x matrices at one time.
 Interchange theorem applied.
 Leave Link 1014 at Tue Nov 22 14:21:52 2022, MaxMem=  1073741824 cpu:            1578.2 elap:              31.6
 (Enter /shared/gaussian/g16.b01/AVX2/g16/l601.exe)
 Copying SCF densities to generalized density rwf, IOpCl= 0 IROHF=0.

 **********************************************************************

            Population analysis using the SCF Density.

 **********************************************************************

 Orbital symmetries:
       Occupied  (A') (A') (A') (A') (A') (A') (A') (A') (A') (A')
                 (A') (A') (A') (A') (A') (A') (A') (A') (A') (A')
                 (A') (A') (A') (A") (A') (A') (A') (A") (A") (A')
                 (A") (A') (A") (A') (A")
       Virtual   (A") (A') (A') (A") (A') (A') (A") (A') (A") (A')
                 (A') (A") (A') (A') (A") (A') (A') (A") (A') (A")
                 (A') (A') (A') (A") (A') (A') (A') (A") (A') (A')
                 (A") (A') (A') (A') (A") (A') (A") (A') (A') (A")
                 (A') (A') (A') (A') (A') (A') (A') (A') (A') (A')
                 (A') (A') (A') (A') (A') (A') (A') (A') (A') (A")
                 (A') (A') (A") (A") (A') (A") (A') (A') (A") (A')
                 (A') (A') (A') (A') (A') (A') (A') (A") (A') (A')
                 (A") (A') (A') (A') (A") (A') (A") (A') (A') (A")
                 (A') (A') (A') (A') (A") (A') (A') (A") (A') (A')
                 (A") (A') (A") (A") (A") (A') (A") (A') (A') (A")
                 (A") (A') (A') (A') (A') (A') (A') (A') (A") (A')
                 (A") (A') (A') (A') (A") (A') (A') (A") (A') (A")
                 (A') (A') (A") (A') (A') (A') (A') (A") (A') (A')
                 (A') (A") (A") (A') (A') (A") (A') (A") (A") (A")
                 (A') (A') (A") (A') (A') (A') (A") (A') (A') (A')
                 (A") (A') (A') (A") (A') (A') (A") (A") (A") (A')
                 (A') (A') (A") (A') (A') (A') (A') (A') (A') (A')
                 (A') (A') (A') (A') (A') (A') (A') (A') (A") (A')
                 (A") (A") (A") (A") (A') (A') (A') (A') (A') (A')
                 (A') (A') (A') (A') (A') (A') (A') (A') (A') (A')
                 (A') (A') (A') (A') (A')
 The electronic state is 1-A'.
 Alpha  occ. eigenvalues --  -14.45724 -14.41254 -14.39240 -14.38370 -14.37746
 Alpha  occ. eigenvalues --  -10.34222 -10.32934 -10.32400 -10.31197 -10.27567
 Alpha  occ. eigenvalues --   -1.13479  -1.07520  -1.02968  -0.98011  -0.94856
 Alpha  occ. eigenvalues --   -0.85703  -0.75313  -0.73708  -0.71275  -0.66597
 Alpha  occ. eigenvalues --   -0.63250  -0.59427  -0.57956  -0.55306  -0.53746
 Alpha  occ. eigenvalues --   -0.51978  -0.49781  -0.48475  -0.43551  -0.39373
 Alpha  occ. eigenvalues --   -0.36740  -0.35879  -0.33393  -0.32415  -0.28486
 Alpha virt. eigenvalues --    0.01085   0.02037   0.03293   0.04101   0.04778
 Alpha virt. eigenvalues --    0.06060   0.06169   0.06446   0.08139   0.08480
 Alpha virt. eigenvalues --    0.09708   0.09893   0.10455   0.11658   0.11923
 Alpha virt. eigenvalues --    0.13776   0.14599   0.15179   0.15283   0.15681
 Alpha virt. eigenvalues --    0.18860   0.19506   0.19875   0.20025   0.20743
 Alpha virt. eigenvalues --    0.20905   0.21640   0.22516   0.22784   0.23846
 Alpha virt. eigenvalues --    0.23981   0.24674   0.25262   0.25712   0.25989
 Alpha virt. eigenvalues --    0.27017   0.27340   0.28027   0.28520   0.29214
 Alpha virt. eigenvalues --    0.29219   0.30495   0.30915   0.31501   0.32140
 Alpha virt. eigenvalues --    0.32548   0.34301   0.35511   0.36854   0.37728
 Alpha virt. eigenvalues --    0.39072   0.40767   0.42411   0.42735   0.46608
 Alpha virt. eigenvalues --    0.47076   0.51271   0.53149   0.57157   0.58951
 Alpha virt. eigenvalues --    0.61054   0.61530   0.61732   0.63717   0.64609
 Alpha virt. eigenvalues --    0.65295   0.65343   0.70354   0.71434   0.71906
 Alpha virt. eigenvalues --    0.73409   0.77569   0.78865   0.79975   0.81998
 Alpha virt. eigenvalues --    0.82237   0.84492   0.87128   0.87996   0.88599
 Alpha virt. eigenvalues --    0.88781   0.90288   0.91624   0.94124   0.94788
 Alpha virt. eigenvalues --    0.94940   0.95837   0.97433   0.98062   0.99604
 Alpha virt. eigenvalues --    0.99641   1.01096   1.03431   1.04436   1.07134
 Alpha virt. eigenvalues --    1.07552   1.11752   1.13164   1.14011   1.15018
 Alpha virt. eigenvalues --    1.19237   1.22538   1.22767   1.23258   1.26787
 Alpha virt. eigenvalues --    1.28428   1.30114   1.34099   1.35695   1.38240
 Alpha virt. eigenvalues --    1.44964   1.47200   1.48351   1.52700   1.59154
[...]
     10   0.767429D+00  0.000000D+00 -0.828162D-01  0.684459D-01  0.000000D+00
     11  -0.250862D+00  0.000000D+00 -0.109136D+00 -0.360964D-02  0.000000D+00
     12   0.890172D-01  0.000000D+00  0.118378D-01  0.957400D-02  0.000000D+00
     13   0.236172D-02  0.000000D+00 -0.858812D-02 -0.255397D-03  0.000000D+00
     14  -0.277040D+00  0.000000D+00 -0.132838D-01 -0.372503D-01  0.000000D+00
     15   0.000000D+00 -0.102956D+00  0.000000D+00  0.000000D+00  0.611204D-01
     16   0.000000D+00  0.465757D+00  0.000000D+00  0.000000D+00  0.348950D+00
                31            32            33            34            35 
      1   0.000000D+00  0.000000D+00  0.000000D+00  0.000000D+00  0.000000D+00
      2   0.439275D-01  0.231332D-01  0.000000D+00  0.714232D+00 -0.298304D+00
      3   0.314251D-01  0.626328D-01  0.000000D+00 -0.510855D+00  0.614695D+00
      4   0.000000D+00  0.000000D+00  0.121480D+00  0.000000D+00  0.000000D+00
      5  -0.777372D-02 -0.841273D-03  0.000000D+00 -0.374322D-01  0.351856D-01
      6  -0.739348D-02 -0.113861D-01  0.000000D+00  0.842396D-01 -0.117073D+00
      7   0.000000D+00  0.000000D+00 -0.244665D-01  0.000000D+00  0.000000D+00
      8   0.000000D+00  0.000000D+00  0.970649D+00  0.000000D+00  0.000000D+00
      9   0.000000D+00  0.000000D+00 -0.409155D+00  0.000000D+00  0.000000D+00
     10   0.155177D+00 -0.216551D+00  0.000000D+00  0.124000D+01  0.759887D+00
     11  -0.510056D-01 -0.305089D-01  0.000000D+00  0.980752D+00 -0.295856D+00
     12   0.232175D-01 -0.545356D-01  0.000000D+00  0.138550D+00  0.601549D-01
     13  -0.145864D-03 -0.852359D-02  0.000000D+00  0.551205D-01  0.127475D-01
     14  -0.341549D-01 -0.389400D-01  0.000000D+00 -0.480165D+00 -0.155320D+00
     15   0.000000D+00  0.000000D+00  0.328707D-01  0.000000D+00  0.000000D+00
     16   0.000000D+00  0.000000D+00  0.264996D+00  0.000000D+00  0.000000D+00
                36            37            38            39            40 
      1   0.000000D+00  0.000000D+00  0.000000D+00  0.000000D+00  0.000000D+00
      2   0.000000D+00  0.341024D+00  0.830577D-01  0.000000D+00 -0.669399D+00
      3   0.000000D+00  0.101534D+01  0.598320D+00  0.000000D+00 -0.319403D+00
      4  -0.368145D+00  0.000000D+00  0.000000D+00 -0.602262D+00  0.000000D+00
      5   0.000000D+00 -0.565804D-01 -0.241719D-01  0.000000D+00  0.412657D-01
      6   0.000000D+00 -0.210237D+00 -0.119429D+00  0.000000D+00  0.835673D-01
      7   0.776334D-01  0.000000D+00  0.000000D+00  0.125541D+00  0.000000D+00
      8  -0.322997D+01  0.000000D+00  0.000000D+00 -0.534986D+01  0.000000D+00
      9   0.134979D+01  0.000000D+00  0.000000D+00  0.214055D+01  0.000000D+00
     10   0.000000D+00  0.958606D+00 -0.243311D+00  0.000000D+00 -0.145772D+01
     11   0.000000D+00 -0.427250D+00 -0.182502D+00  0.000000D+00 -0.812059D+00
     12   0.000000D+00  0.500445D+00 -0.777748D-01  0.000000D+00 -0.166041D+00
     13   0.000000D+00  0.627773D-01 -0.330909D-01  0.000000D+00 -0.664167D-01
     14   0.000000D+00 -0.590708D+00  0.271864D+00  0.000000D+00  0.477044D+00
     15  -0.128890D+00  0.000000D+00  0.000000D+00 -0.160004D+00  0.000000D+00
     16  -0.939151D+00  0.000000D+00  0.000000D+00 -0.149120D+01  0.000000D+00
                41            42            43            44            45 
      1   0.000000D+00  0.000000D+00  0.000000D+00  0.000000D+00  0.000000D+00
      2  -0.333536D+00  0.000000D+00 -0.577488D-02 -0.151380D-01  0.000000D+00
      3  -0.912124D+00  0.000000D+00 -0.990670D-01 -0.240095D-01  0.000000D+00
      4   0.000000D+00 -0.425600D-01  0.000000D+00  0.000000D+00 -0.404023D-01
      5   0.545057D-01  0.000000D+00  0.146454D-02  0.221763D-02  0.000000D+00
      6   0.186893D+00  0.000000D+00  0.201089D-01  0.487619D-02  0.000000D+00
      7   0.000000D+00  0.491428D-02  0.000000D+00  0.000000D+00  0.854706D-02
      8   0.000000D+00  0.286670D+01  0.000000D+00  0.000000D+00 -0.226668D+00
      9   0.000000D+00 -0.832357D+00  0.000000D+00  0.000000D+00  0.106336D+00
     10  -0.880139D+00  0.000000D+00 -0.722665D-01 -0.432311D-01  0.000000D+00
     11   0.130725D+00  0.000000D+00  0.799223D-02  0.528991D-03  0.000000D+00
     12  -0.536100D-01  0.000000D+00 -0.167561D-01 -0.460580D-02  0.000000D+00
     13  -0.339442D-02  0.000000D+00 -0.106539D-02  0.202848D-02  0.000000D+00
     14   0.150986D+00  0.000000D+00 -0.104876D-02 -0.225444D-02  0.000000D+00
     15   0.000000D+00 -0.135655D+00  0.000000D+00  0.000000D+00 -0.302756D-01
     16   0.000000D+00  0.952538D+00  0.000000D+00  0.000000D+00 -0.657698D-01
                46            47            48 
      1   0.000000D+00  0.000000D+00  0.000000D+00
      2  -0.410509D-01  0.165425D-01  0.000000D+00
      3  -0.248826D-01 -0.858756D-01  0.000000D+00
      4   0.000000D+00  0.000000D+00  0.190312D+00
      5   0.826109D-02 -0.425474D-02  0.000000D+00
      6   0.522635D-02  0.178513D-01  0.000000D+00
      7   0.000000D+00  0.000000D+00 -0.392175D-01
      8   0.000000D+00  0.000000D+00  0.670549D+00
      9   0.000000D+00  0.000000D+00 -0.453725D+00
     10  -0.790496D-01 -0.667148D-01  0.000000D+00
     11  -0.461881D-01  0.177418D-01  0.000000D+00
     12  -0.285845D-01  0.383380D-01  0.000000D+00
     13  -0.257074D-02  0.366585D-02  0.000000D+00
     14   0.569853D-01 -0.330597D-01  0.000000D+00
     15   0.000000D+00  0.000000D+00  0.105334D+00
     16   0.000000D+00  0.000000D+00  0.154641D+00

 ----------------------------------------------------------------------

 Electric dipole moment (input orientation):
 (Debye = 10**-18 statcoulomb cm , SI units = C m)
                  (au)            (Debye)         (10**-30 SI)
   Tot        0.766028D+00      0.194705D+01      0.649466D+01
   x         -0.204550D+00     -0.519913D+00     -0.173424D+01
   y          0.738213D+00      0.187635D+01      0.625883D+01
   z          0.000000D+00      0.000000D+00      0.000000D+00

 Dipole polarizability, Alpha (input orientation).
 (esu units = cm**3 , SI units = C**2 m**2 J**-1)
 Alpha(0;0):
               (au)            (10**-24 esu)      (10**-40 SI)
   iso        0.159718D+03      0.236678D+02      0.263340D+02
   aniso      0.143543D+03      0.212709D+02      0.236670D+02
   xx         0.220176D+03      0.326267D+02      0.363020D+02
   yx        -0.217831D+02     -0.322793D+01     -0.359155D+01
   yy         0.189925D+03      0.281440D+02      0.313144D+02
   zx         0.000000D+00      0.000000D+00      0.000000D+00
   zy         0.000000D+00      0.000000D+00      0.000000D+00
   zz         0.690550D+02      0.102329D+02      0.113856D+02

 ----------------------------------------------------------------------

 Dipole orientation:
     6          0.18310441          0.05073591         -4.01729467
     7          2.36310426          0.65478626         -2.89097770
     6          2.45934256          0.68145268         -0.37124153
     6          0.26418912          0.07320346          0.98937565
     6         -1.85329043         -0.51352331         -0.43875619
     7         -2.00073366         -0.55437796         -2.95217603
     1          0.21954832          0.06083406         -6.06748048
     7          4.64678609          1.28756558          0.78335506
     1          6.16459184          1.70813033         -0.27951402
     1          4.75466541          1.31745757          2.67963567
     7         -0.25033242         -0.06936394          3.54365296
     7         -3.70029994         -1.02530625          1.30608783
     6         -2.61525680         -0.72465454          3.64744266
     1         -5.49651931         -1.52301589          0.91800746
     1         -3.68050025         -1.01982001          5.36259032

 Electric dipole moment (dipole orientation):
 (Debye = 10**-18 statcoulomb cm , SI units = C m)
                  (au)            (Debye)         (10**-30 SI)
   Tot        0.766028D+00      0.194705D+01      0.649466D+01
   x          0.000000D+00      0.000000D+00      0.000000D+00
   y          0.000000D+00      0.000000D+00      0.000000D+00
   z          0.766028D+00      0.194705D+01      0.649466D+01

 Dipole polarizability, Alpha (dipole orientation).
 (esu units = cm**3 , SI units = C**2 m**2 J**-1)
 Alpha(0;0):
               (au)            (10**-24 esu)      (10**-40 SI)
   iso        0.159718D+03      0.236678D+02      0.263340D+02
   aniso      0.143543D+03      0.212709D+02      0.236670D+02
   xx         0.196986D+03      0.291902D+02      0.324785D+02
   yx         0.354479D+02      0.525284D+01      0.584457D+01
   yy         0.788772D+02      0.116884D+02      0.130051D+02
   zx        -0.255003D+02     -0.377876D+01     -0.420443D+01
   zy        -0.706582D+01     -0.104705D+01     -0.116500D+01
   zz         0.203293D+03      0.301249D+02      0.335184D+02

 ----------------------------------------------------------------------
 1\1\GINC-BAKU1\Freq\RCAM-B3LYP TD-FC\6-311+G(d,p)\C5H5N5\ROOT\22-Nov-2
 022\0\\#p freq td=(nstates=10,root=2) cam-b3lyp/6-311+G(d,p) symm=loos
 e\\Adenine TDDFT second excited state\\0,1\C,0.664555,-2.021821,0.\N,1
 .659008,-1.127792,0.\C,1.353886,0.17129,0.\C,0.,0.543282,0.\C,-0.91872
 1,-0.495494,0.\N,-0.641588,-1.798863,0.\H,0.97354,-3.061995,0.\N,2.348
 282,1.080832,0.\H,3.301658,0.761362,0.\H,2.137417,2.063682,0.\N,-0.633
 203,1.770424,0.\N,-2.14267,0.123487,0.\C,-1.899333,1.476588,0.\H,-3.03
 8351,-0.337796,0.\H,-2.705393,2.195054,0.\\Version=ES64L-G16RevB.01\St
 ate=1-A'\HF=-467.2325226\RMSD=9.614e-09\RMSF=2.324e-02\ZeroPoint=0.107
 192\Thermal=0.1144086\Dipole=-0.2045496,0.7382134,0.\DipoleDeriv=0.274
 7404,0.1594356,0.,-2.4688427,-2.7177423,0.,0.,0.,-1.9682607,0.1459136,
 0.8486088,0.,2.791344,4.1593944,0.,0.,0.,0.8837912,1.1401649,2.7392239
 ,0.,-1.0566016,-2.1509005,0.,0.,0.,1.8239221,-0.6168602,-1.6743363,0.,
 0.6633082,0.7303057,0.,0.,0.,-0.4630716,1.4098923,1.5358345,0.,-1.9312
 224,-1.6271919,0.,0.,0.,-1.730996,-0.5808142,-2.1009029,0.,2.4992934,1
 .4849177,0.,0.,0.,1.308019,0.059987,0.0634035,0.,0.1613587,0.0569524,0
 .,0.,0.,0.0586261,-1.779047,-0.8688498,0.,-1.4072936,-0.7234405,0.,0.,
 0.,-0.915271,0.4563977,0.0258934,0.,-0.1085902,0.1189256,0.,0.,0.,0.06
 15313,-0.0332794,0.0212363,0.,0.2430168,0.3133611,0.,0.,0.,0.0870991,-
 0.174148,-2.1156054,0.,0.0078348,-1.0825279,0.,0.,0.,0.3905257,-1.6244
 19,-0.9409879,0.,-1.9271041,0.5122098,0.,0.,0.,0.7844271,0.7536634,2.2
 101921,0.,2.4001935,0.5978298,0.,0.,0.,-0.7585847,0.4756577,0.0342394,
 0.,0.1050367,0.1827281,0.,0.,0.,0.3338992,0.0921506,0.0626148,0.,0.028
 2683,0.1451785,0.,0.,0.,0.1043431\Polar=220.1755515,-21.7831374,189.92
 48901,0.,0.,69.055001\PG=CS [SG(C5H5N5)]\NImag=3\\0.68223487,-0.054543
 01,0.52906070,0.,0.,0.52463956,-0.22121099,-0.03896281,0.,0.41217489,-
 0.11274933,0.09519764,0.,-0.00863025,0.16254882,0.,0.,-0.35301152,0.,0
 .,0.27236440,0.01086405,0.11667310,0.,-0.17160910,-0.16634888,0.,0.610
 22907,-0.03252637,-0.24289029,0.,0.09993429,-0.04880571,0.,0.18406041,
 0.56274012,0.,0.,-0.28201564,0.,0.,0.16608273,0.,0.,0.26729002,-0.0038
 7817,-0.09940365,0.,0.01737629,0.15569708,0.,-0.23156627,-0.01655182,0
 .,0.79167214,0.01939322,0.06636348,0.,0.02757739,-0.15127645,0.,-0.019
 78732,-0.03601137,0.,0.01355071,0.59335986,0.,0.,0.07059477,0.,0.,-0.0
 4362913,0.,0.,-0.07335048,0.,0.,0.09470628,-0.06022827,0.19219569,0.,-
 0.02626526,-0.15723720,0.,-0.11872167,0.05102034,0.,-0.14665447,-0.166
 83901,0.,0.59695021,0.06014502,-0.20595559,0.,0.01889813,0.27147458,0.
 ,0.14264229,-0.13526982,0.,-0.16685724,-0.11798959,0.,0.05702784,0.641
 62090,0.,0.,0.48624194,0.,0.,-0.32789569,0.,0.,-0.35490794,0.,0.,0.022
 84836,0.,0.,0.68209440,-0.35317460,-0.05095489,0.,-0.05641328,0.134659
 22,0.,0.09941834,-0.07193313,0.,-0.02138108,0.01250888,0.,-0.04865531,
 -0.06511652,0.,0.49079350,0.05140445,0.08844216,0.,-0.06050080,-0.2542
 2107,0.,-0.12794978,0.14125928,0.,0.06244795,-0.12306142,0.,-0.0986909
 2,-0.17352381,0.,-0.01570872,0.32827708,0.,0.,-0.38273590,0.,0.,0.2689
 4793,0.,0.,0.24055726,0.,0.,-0.03709866,0.,0.,-0.45769216,0.,0.,0.3317
 4239,-0.07255870,0.07867763,0.,0.00238536,-0.03156287,0.,-0.00209895,-
 0.00366158,0.,0.00006353,0.00017456,0.,-0.00562331,0.00203249,0.,-0.01
 855106,0.03315320,0.,0.09525843,0.07911555,-0.29857516,0.,-0.00633959,
 -0.03821491,0.,-0.00731905,0.00621284,0.,0.00339831,-0.00190381,0.,-0.
 00520564,0.00893938,0.,0.00957185,-0.01020783,0.,-0.07961870,0.3343642
 0,0.,0.,-0.01368424,0.,0.,-0.01437568,0.,0.,-0.00891355,0.,0.,0.000448
 33,0.,0.,0.02281935,0.,0.,-0.00743721,0.,0.,0.01948767,-0.00053077,-0.
 07048931,0.,0.03969187,0.09576998,0.,-0.22915367,-0.18044796,0.,-0.069
 56333,-0.00145165,0.,0.03034023,-0.06296861,0.,-0.03404030,0.06907692,
 0.,0.00087399,0.00325906,0.,0.80299272,0.00870747,-0.05958432,0.,-0.02
 392306,-0.00075521,0.,-0.10075958,-0.26039320,0.,-0.02500530,0.0275159
 4,0.,0.03630463,-0.04381777,0.,-0.02337222,0.05337964,0.,-0.00064213,0
 .00165399,0.,-0.06488065,0.84467447,0.,0.,0.09448400,0.,0.,-0.06384034
 ,0.,0.,-0.07613769,0.,0.,0.01583934,0.,0.,0.10957796,0.,0.,-0.07836645
 ,0.,0.,0.00567790,0.,0.,0.03058613,0.00089020,0.00390324,0.,0.00143115
 ,-0.00079247,0.,-0.02119433,0.01034299,0.,0.00041672,-0.00259921,0.,-0
 .00259891,0.00079772,0.,-0.00097992,-0.00206831,0.,-0.00003862,-0.0001
 5632,0.,-0.42951008,0.12193033,0.,0.44682632,-0.00159854,-0.00751002,0
 .,0.00439281,0.01106734,0.,-0.02289000,0.01301873,0.,-0.00381316,-0.00
 350606,0.,0.00113125,-0.00246442,0.,-0.00010135,0.00414888,0.,0.000099
 68,0.00030908,0.,0.12134725,-0.11664455,0.,-0.12592283,0.09903554,0.,0
 .,0.05550597,0.,0.,-0.04112075,0.,0.,-0.03812571,0.,0.,0.01478166,0.,0
 .,0.06488914,0.,0.,-0.04876647,0.,0.,0.00320763,0.,0.,0.00806870,0.,0.
 ,0.01118336,0.00074487,-0.00826519,0.,-0.00239388,0.00462207,0.,0.0178
 1257,-0.02900843,0.,-0.00197670,0.00030797,0.,0.00324759,-0.00556100,0
 .,-0.00128175,0.00699919,0.,-0.00022021,0.00013992,0.,-0.09862550,0.08
 306879,0.,0.00420651,0.02784292,0.,0.07751138,0.00159450,0.00538297,0.
 ,-0.00434305,-0.00812605,0.,0.00602103,-0.01069456,0.,0.00184381,0.000
 40029,0.,-0.00220487,0.00145928,0.,-0.00068666,-0.00371493,0.,-0.00019
 163,-0.00036058,0.,0.08438054,-0.45491893,0.,-0.00332022,0.00124634,0.
 ,-0.08318529,0.47151546,0.,0.,0.04183516,0.,0.,-0.02712591,0.,0.,-0.03
 197487,0.,0.,0.00703522,0.,0.,0.04878958,0.,0.,-0.03473408,0.,0.,0.001
 82161,0.,0.,0.01026443,0.,0.,0.00358946,0.,0.,0.00611407,0.03145017,-0
 .07488441,0.,0.01497181,0.09276884,0.,0.03995386,-0.03969864,0.,-0.170
 08134,0.06441671,0.,0.03611933,-0.00692934,0.,-0.06517456,0.03661130,0
 .,0.00105744,0.00363317,0.,-0.00035307,0.00527496,0.,0.00431429,-0.001
 32205,0.,0.00179711,0.00288524,0.,0.53874374,-0.00215997,-0.04238644,0
 .,0.00716444,0.05877764,0.,0.04279491,-0.02806759,0.,0.00094947,-0.233
 16811,0.,0.02964894,-0.09438669,0.,-0.02406376,0.03281332,0.,0.0001754
 2,0.00149890,0.,-0.00858893,-0.00787697,0.,-0.00042395,-0.00004278,0.,
 -0.00007047,-0.00031114,0.,0.05498808,0.42908018,0.,0.,-0.15468741,0.,
 0.,0.10025642,0.,0.,0.11680691,0.,0.,-0.08602454,0.,0.,-0.14005957,0.,
 0.,0.12269998,0.,0.,-0.00386969,0.,0.,-0.03613234,0.,0.,-0.02024697,0.
 ,0.,-0.01572390,0.,0.,0.09950452,0.00269931,-0.10068054,0.,0.02252718,
 0.14379141,0.,0.07991152,-0.08072955,0.,-0.12094525,0.01844622,0.,-0.2
 1720390,-0.04914647,0.,-0.05190220,0.12140787,0.,0.00045654,0.00397424
 ,0.,-0.03854137,-0.02546775,0.,0.00055038,-0.00215205,0.,-0.00214133,0
 .00170805,0.,-0.05411946,-0.06072763,0.,0.85624465,-0.03567105,-0.0055
 5730,0.,0.01471681,0.01695383,0.,-0.00903657,-0.01586149,0.,0.02168347
 ,0.02467056,0.,0.00809382,-0.17547652,0.,0.08922649,-0.00800376,0.,0.0
 0152668,-0.00037993,0.,-0.02087645,-0.01159129,0.,0.00159609,-0.002158
 32,0.,-0.00269930,0.00271606,0.,-0.03904873,-0.01783630,0.,0.15230167,
 0.62754629,0.,0.,-0.23196818,0.,0.,0.15416043,0.,0.,0.18878053,0.,0.,-
 0.04269581,0.,0.,-0.30912054,0.,0.,0.20435277,0.,0.,-0.01047067,0.,0.,
 -0.05451642,0.,0.,-0.03100077,0.,0.,-0.02443268,0.,0.,0.08476798,0.,0.
 ,0.16212259,-0.01825130,0.09703016,0.,-0.02959035,-0.13588974,0.,-0.07
 795760,0.10129463,0.,-0.03727360,0.03797269,0.,-0.02203395,0.08473226,
 0.,0.05561527,-0.06619397,0.,-0.00112871,-0.00400291,0.,0.02188842,0.0
 0490218,0.,-0.00385135,0.00267999,0.,0.00060587,-0.00399330,0.,-0.3612
 4856,-0.06170692,0.,-0.10830135,-0.01928843,0.,0.79892720,0.01904493,0
 .07277880,0.,-0.02810635,-0.10549747,0.,-0.03215846,0.04727171,0.,0.04
 524329,-0.04057473,0.,0.04950100,0.00455786,0.,0.00300340,-0.06952833,
 0.,-0.00027524,-0.00307200,0.,0.03334483,0.02732824,0.,-0.00325233,0.0
 0325219,0.,0.00558469,-0.00439924,0.,-0.09067226,-0.10559040,0.,0.0116
 1128,-0.26193836,0.,-0.15344817,0.62637138,0.,0.,0.11842939,0.,0.,-0.0
 7412120,0.,0.,-0.09817277,0.,0.,0.05036469,0.,0.,0.12647779,0.,0.,-0.0
 9870276,0.,0.,0.00417417,0.,0.,0.02961547,0.,0.,0.01479548,0.,0.,0.011
 72172,0.,0.,-0.06437446,0.,0.,-0.07163313,0.,0.,0.06516787,0.00091630,
 0.00543572,0.,-0.00115941,-0.00860995,0.,-0.00435312,0.00389879,0.,-0.
 00301032,-0.00108896,0.,-0.01456797,-0.01066892,0.,0.00324406,-0.00575
 744,0.,0.00006209,-0.00025350,0.,0.00286588,0.00235572,0.,-0.00032944,
 0.00017870,0.,0.00038064,-0.00036175,0.,0.00246256,0.00277626,0.,-0.38
 305017,-0.15389191,0.,0.00332007,-0.00564517,0.,0.39341574,0.00039014,
 0.00233514,0.,-0.00097525,-0.00347407,0.,-0.00175724,0.00271554,0.,0.0
 0716280,-0.00414424,0.,0.01160683,0.02075592,0.,-0.00177963,-0.0027182
 8,0.,0.00000226,-0.00013195,0.,0.00153977,0.00084816,0.,-0.00003345,0.
 00019691,0.,0.00023900,-0.00018951,0.,-0.00262041,-0.00577038,0.,-0.15
 919019,-0.15555762,0.,-0.02699229,0.00219778,0.,0.17161505,0.14305034,
 0.,0.,-0.01097340,0.,0.,0.00783740,0.,0.,0.00959062,0.,0.,0.00167342,0
 .,0.,-0.01604091,0.,0.,0.00688766,0.,0.,-0.00064514,0.,0.,-0.00285921,
 0.,0.,-0.00204504,0.,0.,-0.00077613,0.,0.,0.00809721,0.,0.,0.00352897,
 0.,0.,-0.01208753,0.,0.,0.00835360,0.00003304,0.00426826,0.,-0.0019162
 8,-0.00548791,0.,-0.00153468,0.00400603,0.,-0.00319815,-0.00258219,0.,
 -0.00410434,0.00097236,0.,0.00248287,-0.00423095,0.,0.00006219,-0.0001
 9639,0.,0.00166498,0.00150659,0.,-0.00013291,0.00012738,0.,0.00033283,
 -0.00014640,0.,-0.01989333,0.01924412,0.,0.01381546,-0.00863260,0.,-0.
 22072004,0.14622458,0.,-0.00019693,0.00079262,0.,0.23330530,-0.0005469
 9,0.00289824,0.,-0.00090271,-0.00564892,0.,-0.00418487,0.00477581,0.,-
 0.00034573,-0.00067435,0.,-0.00635268,0.00007628,0.,0.00474705,-0.0033
 4094,0.,0.00011020,-0.00013221,0.,0.00098522,0.00018182,0.,-0.00000129
 ,0.00005114,0.,-0.00001486,-0.00000548,0.,-0.00540245,0.01326677,0.,0.
 02485343,-0.01752584,0.,0.14290382,-0.19315744,0.,0.00001736,-0.000113
 76,0.,-0.15586549,0.19934888,0.,0.,0.03734550,0.,0.,-0.02452911,0.,0.,
 -0.02550941,0.,0.,0.00450655,0.,0.,0.04197827,0.,0.,-0.02965429,0.,0.,
 0.00175954,0.,0.,0.00773852,0.,0.,0.00528430,0.,0.,0.00359630,0.,0.,-0
 .01101416,0.,0.,-0.02187507,0.,0.,-0.00165473,0.,0.,-0.00054151,0.,0.,
 0.01256928\\-0.06887596,0.01077506,0.,0.00505256,0.01575386,0.,-0.0228
 5411,0.01478206,0.,0.02370344,-0.05968210,0.,0.01836082,0.03864913,0.,
 0.05645296,-0.03749786,0.,-0.00049535,-0.00106560,0.,0.00097434,-0.005
 33165,0.,-0.00293340,0.00096400,0.,0.00083923,-0.00350819,0.,-0.065417
 69,0.02123345,0.,0.00143027,0.00770490,0.,0.05505962,-0.00358758,0.,-0
 .00072403,0.00019065,0.,-0.00057270,0.00061986,0.\\\@


 WE SHOULD BE CAREFUL TO GET OUT OF AN EXPERIENCE ONLY THE WISDOM
 THAT IS IN IT -- AND STOP THERE;
 LEST WE BE LIKE THE CAT THAT SITS DOWN ON A HOT STOVE-LID.
 SHE WILL NEVER SIT DOWN ON A HOT STOVE LID AGAIN;
 BUT ALSO SHE WILL NEVER SIT DOWN ON A COLD ONE ANY MORE.

                                                     -- MARK TWAIN
 Job cpu time:       0 days  2 hours 21 minutes 25.3 seconds.
 Elapsed time:       0 days  0 hours  2 minutes 50.7 seconds.
 File lengths (MBytes):  RWF=    442 Int=      0 D2E=      0 Chk=     25 Scr=      1
 Normal termination of Gaussian 16 at Tue Nov 22 14:22:12 2022.
