 Entering Gaussian System, Link 0=/shared/gaussian/g16.b01/AVX2/g16/g16
 Initial command:
 /shared/gaussian/g16.b01/AVX2/g16/l1.exe "/scratch/marlene/SCRGAU.142314.Cytosine6311-es5/Gau-8739.inp" -scrdir="/scratch/marlene/SCRGAU.142314.Cytosine6311-es5/"
 Entering Link 1 = /shared/gaussian/g16.b01/AVX2/g16/l1.exe PID=      8740.
  
 Copyright (c) 1988-2017, Gaussian, Inc.  All Rights Reserved.
  
 This is part of the Gaussian(R) 16 program.  It is based on
 the Gaussian(R) 09 system (copyright 2009, Gaussian, Inc.),
 the Gaussian(R) 03 system (copyright 2003, Gaussian, Inc.),
 the Gaussian(R) 98 system (copyright 1998, Gaussian, Inc.),
 the Gaussian(R) 94 system (copyright 1995, Gaussian, Inc.),
 the Gaussian 92(TM) system (copyright 1992, Gaussian, Inc.),
 the Gaussian 90(TM) system (copyright 1990, Gaussian, Inc.),
 the Gaussian 88(TM) system (copyright 1988, Gaussian, Inc.),
 the Gaussian 86(TM) system (copyright 1986, Carnegie Mellon
 University), and the Gaussian 82(TM) system (copyright 1983,
 Carnegie Mellon University). Gaussian is a federally registered
 trademark of Gaussian, Inc.
  
 This software contains proprietary and confidential information,
 including trade secrets, belonging to Gaussian, Inc.
  
 This software is provided under written license and may be
 used, copied, transmitted, or stored only in accord with that
 written license.
  
 The following legend is applicable only to US Government
 contracts under FAR:
  
                    RESTRICTED RIGHTS LEGEND
  
 Use, reproduction and disclosure by the US Government is
 subject to restrictions as set forth in subparagraphs (a)
 and (c) of the Commercial Computer Software - Restricted
 Rights clause in FAR 52.227-19.
  
 Gaussian, Inc.
 340 Quinnipiac St., Bldg. 40, Wallingford CT 06492
  
  
 ---------------------------------------------------------------
 Warning -- This program may not be used in any manner that
 competes with the business of Gaussian, Inc. or will provide
 assistance to any competitor of Gaussian, Inc.  The licensee
 of this program is prohibited from giving any competitor of
 Gaussian, Inc. access to this program.  By using this program,
 the user acknowledges that Gaussian, Inc. is engaged in the
 business of creating and licensing software in the field of
 computational chemistry and represents and warrants to the
 licensee that it is not a competitor of Gaussian, Inc. and that
 it will not use this program in any manner prohibited above.
 ---------------------------------------------------------------
  

 Cite this work as:
 Gaussian 16, Revision B.01,
 M. J. Frisch, G. W. Trucks, H. B. Schlegel, G. E. Scuseria, 
 M. A. Robb, J. R. Cheeseman, G. Scalmani, V. Barone, 
 G. A. Petersson, H. Nakatsuji, X. Li, M. Caricato, A. V. Marenich, 
 J. Bloino, B. G. Janesko, R. Gomperts, B. Mennucci, H. P. Hratchian, 
 J. V. Ortiz, A. F. Izmaylov, J. L. Sonnenberg, D. Williams-Young, 
 F. Ding, F. Lipparini, F. Egidi, J. Goings, B. Peng, A. Petrone, 
 T. Henderson, D. Ranasinghe, V. G. Zakrzewski, J. Gao, N. Rega, 
 G. Zheng, W. Liang, M. Hada, M. Ehara, K. Toyota, R. Fukuda, 
 J. Hasegawa, M. Ishida, T. Nakajima, Y. Honda, O. Kitao, H. Nakai, 
 T. Vreven, K. Throssell, J. A. Montgomery, Jr., J. E. Peralta, 
 F. Ogliaro, M. J. Bearpark, J. J. Heyd, E. N. Brothers, K. N. Kudin, 
 V. N. Staroverov, T. A. Keith, R. Kobayashi, J. Normand, 
 K. Raghavachari, A. P. Rendell, J. C. Burant, S. S. Iyengar, 
 J. Tomasi, M. Cossi, J. M. Millam, M. Klene, C. Adamo, R. Cammi, 
 J. W. Ochterski, R. L. Martin, K. Morokuma, O. Farkas, 
 J. B. Foresman, and D. J. Fox, Gaussian, Inc., Wallingford CT, 2016.
 
 ******************************************
 Gaussian 16:  ES64L-G16RevB.01 20-Dec-2017
                22-Nov-2022 
 ******************************************
 %nprocshared=50
 Will use up to   50 processors via shared memory.
 %mem=5GB
 %chk=Cytosine6311-es5.chk
 ----------------------------------------------------------------
 #p freq td=(nstates=10,root=5) cam-b3lyp/6-311+G(d,p) symm=loose
 ----------------------------------------------------------------
 1/10=4,30=1,38=1/1,3;
 2/12=2,17=4,18=3,40=1/2;
 3/5=4,6=6,7=111,11=9,25=1,30=1,71=2,74=-40,140=1/1,2,3,8;
 4//1;
 5/5=2,38=5,98=1/2;
 8/6=1,10=2,107=5,108=10/1;
 9/8=5,15=3,41=10,42=1,70=2/14;
 10/5=2004,20=4,28=5/2;
 11/6=1,8=1,12=-5,16=1,42=3/1,2,10;
 10/6=3,21=1,28=5/2,14;
 6/7=2,8=2,9=2,10=2/1;
 7/8=1,10=1,12=6,13=8,14=5,25=1,44=2/1,2,3,16;
 1/10=4,30=1/3;
 99//99;
 Leave Link    1 at Tue Nov 22 14:23:14 2022, MaxMem=   671088640 cpu:               1.9 elap:               0.0
 (Enter /shared/gaussian/g16.b01/AVX2/g16/l101.exe)
 ------------------------------
 Cytosine TDDFT excited state 5
 ------------------------------
 Symbolic Z-matrix:
 Charge =  0 Multiplicity = 1
 C                    -0.06655  -1.71453   0. 
 C                    -1.21901   0.43151   0. 
 C                     1.10152   0.34069   0. 
 C                     1.1319   -1.09713   0. 
 N                    -1.2037   -0.98516   0. 
 N                     0.        1.04755   0. 
 N                     2.27167   1.01899   0. 
 O                    -2.29072   0.99492   0. 
 H                    -2.11242  -1.42355   0. 
 H                     2.05696  -1.65368   0. 
 H                    -0.17663  -2.79153   0. 
 H                     3.15955   0.55129   0. 
 H                     2.23531   2.02507   0. 
 
 ITRead=  0  0  0  0  0  0  0  0  0  0  0  0  0
 MicOpt= -1 -1 -1 -1 -1 -1 -1 -1 -1 -1 -1 -1 -1
 NAtoms=     13 NQM=       13 NQMF=       0 NMMI=      0 NMMIF=      0
                NMic=       0 NMicF=      0.
                    Isotopes and Nuclear Properties:
 (Nuclear quadrupole moments (NQMom) in fm**2, nuclear magnetic moments (NMagM)
  in nuclear magnetons)

  Atom         1           2           3           4           5           6           7           8           9          10
 IAtWgt=          12          12          12          12          14          14          14          16           1           1
 AtmWgt=  12.0000000  12.0000000  12.0000000  12.0000000  14.0030740  14.0030740  14.0030740  15.9949146   1.0078250   1.0078250
 NucSpn=           0           0           0           0           2           2           2           0           1           1
 AtZEff=  -0.0000000  -0.0000000  -0.0000000  -0.0000000  -0.0000000  -0.0000000  -0.0000000  -0.0000000  -0.0000000  -0.0000000
 NQMom=    0.0000000   0.0000000   0.0000000   0.0000000   2.0440000   2.0440000   2.0440000   0.0000000   0.0000000   0.0000000
 NMagM=    0.0000000   0.0000000   0.0000000   0.0000000   0.4037610   0.4037610   0.4037610   0.0000000   2.7928460   2.7928460
 AtZNuc=   6.0000000   6.0000000   6.0000000   6.0000000   7.0000000   7.0000000   7.0000000   8.0000000   1.0000000   1.0000000

  Atom        11          12          13
 IAtWgt=           1           1           1
 AtmWgt=   1.0078250   1.0078250   1.0078250
 NucSpn=           1           1           1
 AtZEff=  -0.0000000  -0.0000000  -0.0000000
 NQMom=    0.0000000   0.0000000   0.0000000
 NMagM=    2.7928460   2.7928460   2.7928460
 AtZNuc=   1.0000000   1.0000000   1.0000000
 Leave Link  101 at Tue Nov 22 14:23:14 2022, MaxMem=   671088640 cpu:               5.9 elap:               0.1
 (Enter /shared/gaussian/g16.b01/AVX2/g16/l103.exe)

 GradGradGradGradGradGradGradGradGradGradGradGradGradGradGradGradGradGrad
 Berny optimization.
 Initialization pass.
 Trust Radius=3.00D-01 FncErr=1.00D-07 GrdErr=1.00D-07 EigMax=2.50D+02 EigMin=1.00D-04
 Number of steps in this run=      2 maximum allowed number of steps=      2.
 GradGradGradGradGradGradGradGradGradGradGradGradGradGradGradGradGradGrad

 Leave Link  103 at Tue Nov 22 14:23:14 2022, MaxMem=   671088640 cpu:               1.1 elap:               0.0
 (Enter /shared/gaussian/g16.b01/AVX2/g16/l202.exe)
                          Input orientation:                          
 ---------------------------------------------------------------------
 Center     Atomic      Atomic             Coordinates (Angstroms)
 Number     Number       Type             X           Y           Z
 ---------------------------------------------------------------------
      1          6           0       -0.066548   -1.714527    0.000000
      2          6           0       -1.219007    0.431513    0.000000
      3          6           0        1.101517    0.340693    0.000000
      4          6           0        1.131900   -1.097127    0.000000
      5          7           0       -1.203699   -0.985159    0.000000
      6          7           0        0.000000    1.047554    0.000000
      7          7           0        2.271670    1.018994    0.000000
      8          8           0       -2.290717    0.994921    0.000000
      9          1           0       -2.112424   -1.423553    0.000000
     10          1           0        2.056960   -1.653675    0.000000
     11          1           0       -0.176634   -2.791533    0.000000
     12          1           0        3.159550    0.551294    0.000000
     13          1           0        2.235310    2.025069    0.000000
 ---------------------------------------------------------------------
                    Distance matrix (angstroms):
                    1          2          3          4          5
     1  C    0.000000
     2  C    2.435908   0.000000
     3  C    2.363960   2.322301   0.000000
     4  C    1.348132   2.804194   1.438141   0.000000
     5  N    1.350959   1.416755   2.659305   2.338281   0.000000
     6  N    2.762883   1.365827   1.308813   2.425047   2.362375
     7  N    3.597138   3.539768   1.352535   2.403548   4.011835
     8  O    3.505430   1.210781   3.454745   4.011355   2.258833
     9  H    2.066464   2.058996   3.666331   3.260704   1.008945
    10  H    2.124380   3.883294   2.211419   1.079575   3.328485
    11  H    1.082618   3.387413   3.382973   2.140858   2.077944
    12  H    3.942290   4.380195   2.068780   2.613170   4.625865
    13  H    4.391256   3.804172   2.030421   3.311438   4.570367
                    6          7          8          9         10
     6  N    0.000000
     7  N    2.271850   0.000000
     8  O    2.291322   4.562451   0.000000
     9  H    3.250954   5.018597   2.425037   0.000000
    10  H    3.395250   2.681280   5.090909   4.175730   0.000000
    11  H    3.843148   4.529272   4.336655   2.370370   2.506724
    12  H    3.198286   1.003531   5.468292   5.629719   2.465277
    13  H    2.439702   1.006732   4.641780   5.549395   3.683065
                   11         12         13
    11  H    0.000000
    12  H    4.722776   0.000000
    13  H    5.386755   1.739607   0.000000
 Stoichiometry    C4H5N3O
 Framework group  CS[SG(C4H5N3O)]
 Deg. of freedom    23
 Full point group                 CS      NOp   2
 Largest Abelian subgroup         CS      NOp   2
 Largest concise Abelian subgroup C1      NOp   1
                         Standard orientation:                         
 ---------------------------------------------------------------------
 Center     Atomic      Atomic             Coordinates (Angstroms)
 Number     Number       Type             X           Y           Z
 ---------------------------------------------------------------------
      1          6           0       -0.066548   -1.714527   -0.000000
      2          6           0       -1.219007    0.431513   -0.000000
      3          6           0        1.101517    0.340693    0.000000
      4          6           0        1.131900   -1.097127    0.000000
      5          7           0       -1.203699   -0.985159   -0.000000
      6          7           0       -0.000000    1.047554    0.000000
      7          7           0        2.271670    1.018994    0.000000
      8          8           0       -2.290717    0.994921   -0.000000
      9          1           0       -2.112424   -1.423553   -0.000000
     10          1           0        2.056960   -1.653675    0.000000
     11          1           0       -0.176634   -2.791533   -0.000000
     12          1           0        3.159550    0.551294    0.000000
     13          1           0        2.235310    2.025069    0.000000
 ---------------------------------------------------------------------
 Rotational constants (GHZ):           3.9010134           2.0371751           1.3382949
 Leave Link  202 at Tue Nov 22 14:23:14 2022, MaxMem=   671088640 cpu:               0.5 elap:               0.0
 (Enter /shared/gaussian/g16.b01/AVX2/g16/l301.exe)
 Standard basis: 6-311+G(d,p) (5D, 7F)
 Ernie: Thresh=  0.10000D-02 Tol=  0.10000D-05 Strict=F.
 There are   161 symmetry adapted cartesian basis functions of A'  symmetry.
 There are    53 symmetry adapted cartesian basis functions of A"  symmetry.
 There are   153 symmetry adapted basis functions of A'  symmetry.
 There are    53 symmetry adapted basis functions of A"  symmetry.
   206 basis functions,   328 primitive gaussians,   214 cartesian basis functions
    29 alpha electrons       29 beta electrons
       nuclear repulsion energy       357.6440465964 Hartrees.
 IExCor=20419 DFT=T Ex+Corr=CAM-B3LYP ExCW=0 ScaHFX=  1.000000
 ScaDFX=  1.000000  1.000000  1.000000  0.810000 ScalE2=  1.000000  1.000000
 IRadAn=      5 IRanWt=     -1 IRanGd=            0 ICorTp=0 IEmpDi=  4
 HFx  wShort=  0.000000 wLong=  0.330000 cFull=  0.190000 cShort=  0.000000 cLong=  0.460000
 DFx  wShort=  0.000000 wLong=  0.330000 cFull=  0.190000 cShort=  0.000000 cLong=  0.460000
 NAtoms=   13 NActive=   13 NUniq=   13 SFac= 1.00D+00 NAtFMM=   60 NAOKFM=F Big=F
 Integral buffers will be    131072 words long.
 Raffenetti 1 integral format.
 Two-electron integral symmetry is turned on.
 Leave Link  301 at Tue Nov 22 14:23:14 2022, MaxMem=   671088640 cpu:               2.4 elap:               0.1
 (Enter /shared/gaussian/g16.b01/AVX2/g16/l302.exe)
 NPDir=0 NMtPBC=     1 NCelOv=     1 NCel=       1 NClECP=     1 NCelD=      1
         NCelK=      1 NCelE2=     1 NClLst=     1 CellRange=     0.0.
 One-electron integrals computed using PRISM.
 One-electron integral symmetry used in STVInt
 NBasis=   206 RedAO= T EigKep=  2.02D-05  NBF=   153    53
 NBsUse=   206 1.00D-06 EigRej= -1.00D+00 NBFU=   153    53
 Precomputing XC quadrature grid using
 IXCGrd= 4 IRadAn=           5 IRanWt=          -1 IRanGd=           0 AccXCQ= 0.00D+00.
 Generated NRdTot=       0 NPtTot=           0 NUsed=           0 NTot=          32
 NSgBfM=   214   214   214   214   214 MxSgAt=    13 MxSgA2=    13.
 Leave Link  302 at Tue Nov 22 14:23:15 2022, MaxMem=   671088640 cpu:              10.9 elap:               0.2
 (Enter /shared/gaussian/g16.b01/AVX2/g16/l303.exe)
 DipDrv:  MaxL=1.
 Leave Link  303 at Tue Nov 22 14:23:15 2022, MaxMem=   671088640 cpu:               1.6 elap:               0.1
 (Enter /shared/gaussian/g16.b01/AVX2/g16/l308.exe)
 Leave Link  308 at Tue Nov 22 14:23:15 2022, MaxMem=   671088640 cpu:               1.7 elap:               0.1
 (Enter /shared/gaussian/g16.b01/AVX2/g16/l401.exe)
 ExpMin= 4.38D-02 ExpMax= 8.59D+03 ExpMxC= 1.30D+03 IAcc=3 IRadAn=         5 AccDes= 0.00D+00
 Harris functional with IExCor=20419 and IRadAn=       5 diagonalized for initial guess.
 HarFok:  IExCor=20419 AccDes= 0.00D+00 IRadAn=         5 IDoV= 1 UseB2=F ITyADJ=14
 ICtDFT=  3500011 ScaDFX=  1.000000  1.000000  1.000000  1.000000
 FoFCou: FMM=F IPFlag=           0 FMFlag=      100000 FMFlg1=           0
         NFxFlg=           0 DoJE=T BraDBF=F KetDBF=T FulRan=T
         wScrn=  0.000000 ICntrl=       500 IOpCl=  0 I1Cent=   200000004 NGrid=           0
         NMat0=    1 NMatS0=      1 NMatT0=    0 NMatD0=    1 NMtDS0=    0 NMtDT0=    0
 Petite list used in FoFCou.
 Harris En= -380.503343960488    
 JPrj=0 DoOrth=F DoCkMO=F.
 Initial guess orbital symmetries:
       Occupied  (A') (A') (A') (A') (A') (A') (A') (A') (A') (A')
                 (A') (A') (A') (A') (A') (A') (A') (A') (A') (A')
                 (A") (A') (A') (A") (A") (A') (A') (A") (A")
       Virtual   (A') (A") (A') (A') (A") (A') (A") (A') (A') (A")
                 (A') (A') (A") (A') (A") (A') (A') (A') (A") (A')
                 (A") (A') (A') (A') (A') (A") (A') (A') (A") (A')
                 (A') (A') (A') (A') (A") (A') (A') (A') (A') (A')
                 (A') (A') (A') (A') (A') (A') (A') (A') (A") (A')
                 (A') (A") (A") (A') (A") (A') (A') (A') (A') (A')
                 (A') (A') (A') (A') (A') (A") (A') (A") (A') (A')
                 (A") (A') (A') (A') (A") (A') (A") (A') (A') (A")
                 (A') (A') (A") (A") (A') (A") (A') (A") (A') (A")
                 (A') (A') (A') (A') (A") (A') (A') (A") (A') (A")
                 (A') (A') (A") (A') (A') (A') (A') (A') (A") (A')
                 (A') (A') (A") (A') (A') (A") (A') (A") (A') (A")
                 (A") (A') (A") (A') (A') (A") (A') (A') (A') (A")
                 (A') (A') (A') (A") (A') (A") (A') (A') (A") (A')
                 (A") (A') (A') (A') (A') (A") (A') (A') (A') (A')
                 (A') (A') (A') (A') (A") (A") (A") (A') (A') (A')
                 (A') (A') (A') (A') (A") (A') (A') (A') (A') (A')
                 (A') (A') (A') (A') (A') (A') (A')
 The electronic state of the initial guess is 1-A'.
 Leave Link  401 at Tue Nov 22 14:23:15 2022, MaxMem=   671088640 cpu:              13.5 elap:               0.3
 (Enter /shared/gaussian/g16.b01/AVX2/g16/l502.exe)
 Integral symmetry usage will be decided dynamically.
 Closed shell SCF:
 Using DIIS extrapolation, IDIIS=  1040.
 NGot=   671088640 LenX=   670983755 LenY=   670937518
 Requested convergence on RMS density matrix=1.00D-08 within 128 cycles.
 Requested convergence on MAX density matrix=1.00D-06.
 Requested convergence on             energy=1.00D-06.
 No special actions if energy rises.
 Fock matrices will be formed incrementally for  20 cycles.

 Cycle   1  Pass 1  IDiag  1:
 FoFJK:  IHMeth= 1 ICntrl=       0 DoSepK=T KAlg= 0 I1Cent=           0 FoldK=F
 IRaf=         1 NMat=       1 IRICut=       1 DoRegI=T DoRafI=F ISym2E= 1 IDoP0=0 IntGTp=1.
 FoFCou: FMM=F IPFlag=           0 FMFlag=      100000 FMFlg1=           0
         NFxFlg=           0 DoJE=T BraDBF=F KetDBF=F FulRan=T
         wScrn=  0.000000 ICntrl=       500 IOpCl=  0 I1Cent=           0 NGrid=           0
         NMat0=    1 NMatS0=      1 NMatT0=    0 NMatD0=    1 NMtDS0=    0 NMtDT0=    0
 Petite list used in FoFCou.
 E= -394.772229782623    
 DIIS: error= 6.37D-02 at cycle   1 NSaved=   1.
 NSaved= 1 IEnMin= 1 EnMin= -394.772229782623     IErMin= 1 ErrMin= 6.37D-02
 ErrMax= 6.37D-02  0.00D+00 EMaxC= 1.00D-01 BMatC= 6.56D-01 BMatP= 6.56D-01
 IDIUse=3 WtCom= 3.63D-01 WtEn= 6.37D-01
 Coeff-Com:  0.100D+01
 Coeff-En:   0.100D+01
 Coeff:      0.100D+01
 Gap=     0.308 Goal=   None    Shift=    0.000
 GapD=    0.308 DampG=1.000 DampE=0.500 DampFc=0.5000 IDamp=-1.
 Damping current iteration by 5.00D-01
 RMSDP=4.54D-03 MaxDP=1.58D-01              OVMax= 1.25D-01

 Cycle   2  Pass 1  IDiag  1:
 RMSU=  2.24D-03    CP:  1.02D+00
 E= -394.818793039068     Delta-E=       -0.046563256445 Rises=F Damp=T
 DIIS: error= 3.04D-02 at cycle   2 NSaved=   2.
 NSaved= 2 IEnMin= 2 EnMin= -394.818793039068     IErMin= 2 ErrMin= 3.04D-02
 ErrMax= 3.04D-02  0.00D+00 EMaxC= 1.00D-01 BMatC= 1.39D-01 BMatP= 6.56D-01
 IDIUse=3 WtCom= 6.96D-01 WtEn= 3.04D-01
 Coeff-Com: -0.617D+00 0.162D+01
 Coeff-En:   0.000D+00 0.100D+01
 Coeff:     -0.429D+00 0.143D+01
 Gap=     0.315 Goal=   None    Shift=    0.000
 RMSDP=1.86D-03 MaxDP=1.19D-01 DE=-4.66D-02 OVMax= 1.27D-01

 Cycle   3  Pass 1  IDiag  1:
 RMSU=  1.75D-03    CP:  9.84D-01  1.11D+00
 E= -394.837513420235     Delta-E=       -0.018720381167 Rises=F Damp=F
 DIIS: error= 1.77D-02 at cycle   3 NSaved=   3.
 NSaved= 3 IEnMin= 3 EnMin= -394.837513420235     IErMin= 3 ErrMin= 1.77D-02
 ErrMax= 1.77D-02  0.00D+00 EMaxC= 1.00D-01 BMatC= 4.64D-02 BMatP= 1.39D-01
 IDIUse=3 WtCom= 8.23D-01 WtEn= 1.77D-01
 Coeff-Com: -0.388D+00 0.850D+00 0.538D+00
 Coeff-En:   0.000D+00 0.199D+00 0.801D+00
 Coeff:     -0.319D+00 0.735D+00 0.585D+00
 Gap=     0.301 Goal=   None    Shift=    0.000
 RMSDP=1.27D-03 MaxDP=5.09D-02 DE=-1.87D-02 OVMax= 6.11D-02

 Cycle   4  Pass 1  IDiag  1:
 RMSU=  5.12D-04    CP:  1.00D+00  1.50D+00  5.94D-01
 E= -394.870703345556     Delta-E=       -0.033189925321 Rises=F Damp=F
 DIIS: error= 6.22D-03 at cycle   4 NSaved=   4.
 NSaved= 4 IEnMin= 4 EnMin= -394.870703345556     IErMin= 4 ErrMin= 6.22D-03
 ErrMax= 6.22D-03  0.00D+00 EMaxC= 1.00D-01 BMatC= 4.41D-03 BMatP= 4.64D-02
 IDIUse=3 WtCom= 9.38D-01 WtEn= 6.22D-02
 Coeff-Com: -0.158D+00 0.340D+00 0.335D+00 0.483D+00
 Coeff-En:   0.000D+00 0.000D+00 0.215D-01 0.978D+00
 Coeff:     -0.148D+00 0.319D+00 0.315D+00 0.514D+00
 Gap=     0.300 Goal=   None    Shift=    0.000
 RMSDP=4.55D-04 MaxDP=1.86D-02 DE=-3.32D-02 OVMax= 1.54D-02

 Cycle   5  Pass 1  IDiag  1:
 RMSU=  2.17D-04    CP:  9.96D-01  1.40D+00  7.36D-01  6.58D-01
 E= -394.873724483480     Delta-E=       -0.003021137924 Rises=F Damp=F
 DIIS: error= 1.05D-03 at cycle   5 NSaved=   5.
 NSaved= 5 IEnMin= 5 EnMin= -394.873724483480     IErMin= 5 ErrMin= 1.05D-03
 ErrMax= 1.05D-03  0.00D+00 EMaxC= 1.00D-01 BMatC= 1.35D-04 BMatP= 4.41D-03
 IDIUse=3 WtCom= 9.89D-01 WtEn= 1.05D-02
 Coeff-Com: -0.249D-01 0.528D-01 0.765D-01 0.233D+00 0.663D+00
 Coeff-En:   0.000D+00 0.000D+00 0.000D+00 0.000D+00 0.100D+01
 Coeff:     -0.247D-01 0.522D-01 0.757D-01 0.230D+00 0.666D+00
 Gap=     0.298 Goal=   None    Shift=    0.000
 RMSDP=8.32D-05 MaxDP=3.92D-03 DE=-3.02D-03 OVMax= 4.43D-03

 Cycle   6  Pass 1  IDiag  1:
 RMSU=  5.60D-05    CP:  9.96D-01  1.40D+00  7.39D-01  7.75D-01  9.59D-01
 E= -394.873821335539     Delta-E=       -0.000096852059 Rises=F Damp=F
 DIIS: error= 4.04D-04 at cycle   6 NSaved=   6.
 NSaved= 6 IEnMin= 6 EnMin= -394.873821335539     IErMin= 6 ErrMin= 4.04D-04
 ErrMax= 4.04D-04  0.00D+00 EMaxC= 1.00D-01 BMatC= 1.47D-05 BMatP= 1.35D-04
 IDIUse=3 WtCom= 9.96D-01 WtEn= 4.04D-03
 Coeff-Com:  0.135D-01-0.293D-01-0.158D-01 0.333D-01 0.341D+00 0.657D+00
 Coeff-En:   0.000D+00 0.000D+00 0.000D+00 0.000D+00 0.000D+00 0.100D+01
 Coeff:      0.134D-01-0.291D-01-0.158D-01 0.332D-01 0.340D+00 0.659D+00
 Gap=     0.299 Goal=   None    Shift=    0.000
 RMSDP=4.39D-05 MaxDP=2.88D-03 DE=-9.69D-05 OVMax= 2.10D-03

 Cycle   7  Pass 1  IDiag  1:
 RMSU=  1.96D-05    CP:  9.95D-01  1.39D+00  7.52D-01  7.91D-01  1.07D+00
                    CP:  9.27D-01
 E= -394.873836993583     Delta-E=       -0.000015658044 Rises=F Damp=F
 DIIS: error= 1.03D-04 at cycle   7 NSaved=   7.
 NSaved= 7 IEnMin= 7 EnMin= -394.873836993583     IErMin= 7 ErrMin= 1.03D-04
 ErrMax= 1.03D-04  0.00D+00 EMaxC= 1.00D-01 BMatC= 9.73D-07 BMatP= 1.47D-05
 IDIUse=3 WtCom= 9.99D-01 WtEn= 1.03D-03
 Coeff-Com:  0.646D-02-0.138D-01-0.122D-01-0.193D-01 0.273D-01 0.197D+00
 Coeff-Com:  0.815D+00
 Coeff-En:   0.000D+00 0.000D+00 0.000D+00 0.000D+00 0.000D+00 0.000D+00
 Coeff-En:   0.100D+01
 Coeff:      0.645D-02-0.138D-01-0.122D-01-0.193D-01 0.273D-01 0.197D+00
 Coeff:      0.815D+00
 Gap=     0.299 Goal=   None    Shift=    0.000
 RMSDP=2.37D-05 MaxDP=1.60D-03 DE=-1.57D-05 OVMax= 5.47D-04

 Cycle   8  Pass 1  IDiag  1:
 RMSU=  6.02D-06    CP:  9.94D-01  1.39D+00  7.57D-01  8.06D-01  1.12D+00
                    CP:  1.08D+00  1.08D+00
 E= -394.873838596056     Delta-E=       -0.000001602473 Rises=F Damp=F
 DIIS: error= 4.39D-05 at cycle   8 NSaved=   8.
 NSaved= 8 IEnMin= 8 EnMin= -394.873838596056     IErMin= 8 ErrMin= 4.39D-05
 ErrMax= 4.39D-05  0.00D+00 EMaxC= 1.00D-01 BMatC= 1.31D-07 BMatP= 9.73D-07
 IDIUse=1 WtCom= 1.00D+00 WtEn= 0.00D+00
 Coeff-Com:  0.735D-03-0.153D-02-0.251D-02-0.131D-01-0.358D-01-0.109D-01
 Coeff-Com:  0.269D+00 0.794D+00
 Coeff:      0.735D-03-0.153D-02-0.251D-02-0.131D-01-0.358D-01-0.109D-01
 Coeff:      0.269D+00 0.794D+00
 Gap=     0.299 Goal=   None    Shift=    0.000
 RMSDP=6.14D-06 MaxDP=2.23D-04 DE=-1.60D-06 OVMax= 4.24D-04

 Cycle   9  Pass 1  IDiag  1:
 RMSU=  2.45D-06    CP:  9.94D-01  1.39D+00  7.58D-01  8.06D-01  1.13D+00
                    CP:  1.11D+00  1.18D+00  9.37D-01
 E= -394.873838858837     Delta-E=       -0.000000262781 Rises=F Damp=F
 DIIS: error= 1.63D-05 at cycle   9 NSaved=   9.
 NSaved= 9 IEnMin= 9 EnMin= -394.873838858837     IErMin= 9 ErrMin= 1.63D-05
 ErrMax= 1.63D-05  0.00D+00 EMaxC= 1.00D-01 BMatC= 2.15D-08 BMatP= 1.31D-07
 IDIUse=1 WtCom= 1.00D+00 WtEn= 0.00D+00
 Coeff-Com: -0.975D-03 0.209D-02 0.177D-02-0.642D-04-0.145D-01-0.336D-01
 Coeff-Com: -0.750D-01 0.266D+00 0.854D+00
 Coeff:     -0.975D-03 0.209D-02 0.177D-02-0.642D-04-0.145D-01-0.336D-01
 Coeff:     -0.750D-01 0.266D+00 0.854D+00
 Gap=     0.299 Goal=   None    Shift=    0.000
 RMSDP=2.44D-06 MaxDP=7.63D-05 DE=-2.63D-07 OVMax= 1.46D-04

 Cycle  10  Pass 1  IDiag  1:
 RMSU=  8.60D-07    CP:  9.94D-01  1.39D+00  7.58D-01  8.06D-01  1.14D+00
                    CP:  1.13D+00  1.21D+00  1.09D+00  1.21D+00
 E= -394.873838899473     Delta-E=       -0.000000040636 Rises=F Damp=F
 DIIS: error= 3.66D-06 at cycle  10 NSaved=  10.
 NSaved=10 IEnMin=10 EnMin= -394.873838899473     IErMin=10 ErrMin= 3.66D-06
 ErrMax= 3.66D-06  0.00D+00 EMaxC= 1.00D-01 BMatC= 2.03D-09 BMatP= 2.15D-08
 IDIUse=1 WtCom= 1.00D+00 WtEn= 0.00D+00
 Coeff-Com: -0.300D-03 0.644D-03 0.692D-03 0.913D-03-0.238D-02-0.969D-02
 Coeff-Com: -0.533D-01 0.389D-01 0.284D+00 0.741D+00
 Coeff:     -0.300D-03 0.644D-03 0.692D-03 0.913D-03-0.238D-02-0.969D-02
 Coeff:     -0.533D-01 0.389D-01 0.284D+00 0.741D+00
 Gap=     0.299 Goal=   None    Shift=    0.000
 RMSDP=3.95D-07 MaxDP=1.52D-05 DE=-4.06D-08 OVMax= 4.26D-05

 Cycle  11  Pass 1  IDiag  1:
 RMSU=  2.67D-07    CP:  9.94D-01  1.39D+00  7.58D-01  8.06D-01  1.14D+00
                    CP:  1.13D+00  1.22D+00  1.10D+00  1.28D+00  1.16D+00
 E= -394.873838902781     Delta-E=       -0.000000003307 Rises=F Damp=F
 DIIS: error= 1.27D-06 at cycle  11 NSaved=  11.
 NSaved=11 IEnMin=11 EnMin= -394.873838902781     IErMin=11 ErrMin= 1.27D-06
 ErrMax= 1.27D-06  0.00D+00 EMaxC= 1.00D-01 BMatC= 2.81D-10 BMatP= 2.03D-09
 IDIUse=1 WtCom= 1.00D+00 WtEn= 0.00D+00
 Coeff-Com:  0.472D-04-0.103D-03-0.123D-04 0.395D-03 0.162D-02 0.279D-02
 Coeff-Com: -0.525D-02-0.251D-01-0.741D-01 0.213D+00 0.887D+00
 Coeff:      0.472D-04-0.103D-03-0.123D-04 0.395D-03 0.162D-02 0.279D-02
 Coeff:     -0.525D-02-0.251D-01-0.741D-01 0.213D+00 0.887D+00
 Gap=     0.299 Goal=   None    Shift=    0.000
 RMSDP=3.07D-07 MaxDP=2.57D-05 DE=-3.31D-09 OVMax= 1.46D-05

 Cycle  12  Pass 1  IDiag  1:
 RMSU=  1.14D-07    CP:  9.94D-01  1.39D+00  7.58D-01  8.06D-01  1.14D+00
                    CP:  1.13D+00  1.21D+00  1.11D+00  1.33D+00  1.30D+00
                    CP:  1.20D+00
 E= -394.873838903248     Delta-E=       -0.000000000468 Rises=F Damp=F
 DIIS: error= 4.12D-07 at cycle  12 NSaved=  12.
 NSaved=12 IEnMin=12 EnMin= -394.873838903248     IErMin=12 ErrMin= 4.12D-07
 ErrMax= 4.12D-07  0.00D+00 EMaxC= 1.00D-01 BMatC= 1.27D-11 BMatP= 2.81D-10
 IDIUse=1 WtCom= 1.00D+00 WtEn= 0.00D+00
 Coeff-Com:  0.230D-04-0.494D-04-0.325D-04 0.333D-04 0.443D-03 0.985D-03
 Coeff-Com:  0.148D-02-0.627D-02-0.344D-01 0.109D-01 0.158D+00 0.869D+00
 Coeff:      0.230D-04-0.494D-04-0.325D-04 0.333D-04 0.443D-03 0.985D-03
 Coeff:      0.148D-02-0.627D-02-0.344D-01 0.109D-01 0.158D+00 0.869D+00
 Gap=     0.299 Goal=   None    Shift=    0.000
 RMSDP=8.63D-08 MaxDP=7.42D-06 DE=-4.68D-10 OVMax= 2.77D-06

 Cycle  13  Pass 1  IDiag  1:
 RMSU=  2.49D-08    CP:  9.94D-01  1.39D+00  7.58D-01  8.06D-01  1.14D+00
                    CP:  1.13D+00  1.21D+00  1.11D+00  1.34D+00  1.34D+00
                    CP:  1.28D+00  1.18D+00
 E= -394.873838903268     Delta-E=       -0.000000000020 Rises=F Damp=F
 DIIS: error= 1.54D-07 at cycle  13 NSaved=  13.
 NSaved=13 IEnMin=13 EnMin= -394.873838903268     IErMin=13 ErrMin= 1.54D-07
 ErrMax= 1.54D-07  0.00D+00 EMaxC= 1.00D-01 BMatC= 4.11D-12 BMatP= 1.27D-11
 IDIUse=1 WtCom= 1.00D+00 WtEn= 0.00D+00
 Coeff-Com:  0.686D-05-0.145D-04-0.179D-04-0.460D-04-0.194D-04 0.114D-03
 Coeff-Com:  0.158D-02 0.870D-03-0.702D-02-0.205D-01-0.525D-01 0.411D+00
 Coeff-Com:  0.666D+00
 Coeff:      0.686D-05-0.145D-04-0.179D-04-0.460D-04-0.194D-04 0.114D-03
 Coeff:      0.158D-02 0.870D-03-0.702D-02-0.205D-01-0.525D-01 0.411D+00
 Coeff:      0.666D+00
 Gap=     0.299 Goal=   None    Shift=    0.000
 RMSDP=2.30D-08 MaxDP=1.52D-06 DE=-2.01D-11 OVMax= 1.05D-06

 Cycle  14  Pass 1  IDiag  1:
 RMSU=  9.23D-09    CP:  9.94D-01  1.39D+00  7.58D-01  8.06D-01  1.14D+00
                    CP:  1.13D+00  1.21D+00  1.11D+00  1.34D+00  1.35D+00
                    CP:  1.31D+00  1.28D+00  1.01D+00
 E= -394.873838903275     Delta-E=       -0.000000000007 Rises=F Damp=F
 DIIS: error= 3.76D-08 at cycle  14 NSaved=  14.
 NSaved=14 IEnMin=14 EnMin= -394.873838903275     IErMin=14 ErrMin= 3.76D-08
 ErrMax= 3.76D-08  0.00D+00 EMaxC= 1.00D-01 BMatC= 1.91D-13 BMatP= 4.11D-12
 IDIUse=1 WtCom= 1.00D+00 WtEn= 0.00D+00
 Coeff-Com: -0.348D-06 0.816D-06-0.797D-06-0.118D-04-0.523D-04-0.507D-04
 Coeff-Com:  0.226D-03 0.907D-03 0.117D-02-0.472D-02-0.274D-01 0.713D-02
 Coeff-Com:  0.151D+00 0.872D+00
 Coeff:     -0.348D-06 0.816D-06-0.797D-06-0.118D-04-0.523D-04-0.507D-04
 Coeff:      0.226D-03 0.907D-03 0.117D-02-0.472D-02-0.274D-01 0.713D-02
 Coeff:      0.151D+00 0.872D+00
 Gap=     0.299 Goal=   None    Shift=    0.000
 RMSDP=7.44D-09 MaxDP=3.29D-07 DE=-6.59D-12 OVMax= 1.80D-07

 SCF Done:  E(RCAM-B3LYP) =  -394.873838903     A.U. after   14 cycles
            NFock= 14  Conv=0.74D-08     -V/T= 2.0031
 KE= 3.936723861919D+02 PE=-1.638208488417D+03 EE= 4.920182167249D+02
 Leave Link  502 at Tue Nov 22 14:23:22 2022, MaxMem=   671088640 cpu:             336.3 elap:               6.8
 (Enter /shared/gaussian/g16.b01/AVX2/g16/l801.exe)
 DoSCS=F DFT=T ScalE2(SS,OS)=  1.000000  1.000000
 ExpMin= 4.38D-02 ExpMax= 8.59D+03 ExpMxC= 1.30D+03 IAcc=3 IRadAn=         5 AccDes= 0.00D+00
 HarFok:  IExCor=  205 AccDes= 0.00D+00 IRadAn=         5 IDoV=-2 UseB2=F ITyADJ=14
 ICtDFT= 12500011 ScaDFX=  1.000000  1.000000  1.000000  1.000000
 Largest valence mixing into a core orbital is  4.97D-05
 Largest core mixing into a valence orbital is  1.15D-05
 Range of M.O.s used for correlation:     9   206
 NBasis=   206 NAE=    29 NBE=    29 NFC=     8 NFV=     0
 NROrb=    198 NOA=    21 NOB=    21 NVA=   177 NVB=   177

 **** Warning!!: The largest alpha MO coefficient is  0.67292382D+02

 Leave Link  801 at Tue Nov 22 14:23:22 2022, MaxMem=   671088640 cpu:               2.1 elap:               0.1
 (Enter /shared/gaussian/g16.b01/AVX2/g16/l914.exe)
 RHF ground state
 Two-electron integrals replicated using symmetry.
 MDV=   671088640 DFT=T DoStab=F Mixed=T DoRPA=T DoScal=F NonHer=T
 Making orbital integer symmetry assigments:
 Orbital symmetries:
       Occupied  (A') (A') (A') (A') (A') (A') (A') (A') (A') (A')
                 (A') (A') (A') (A') (A') (A') (A') (A') (A') (A")
                 (A') (A') (A') (A") (A") (A') (A') (A") (A")
       Virtual   (A") (A') (A') (A') (A") (A') (A") (A') (A') (A")
                 (A') (A") (A') (A') (A') (A") (A') (A') (A") (A')
                 (A') (A") (A') (A') (A') (A") (A') (A') (A') (A")
                 (A') (A') (A') (A') (A') (A') (A") (A') (A') (A')
                 (A') (A') (A') (A') (A') (A') (A') (A') (A") (A')
                 (A") (A') (A") (A') (A') (A") (A') (A') (A') (A')
                 (A') (A') (A') (A') (A') (A") (A') (A") (A') (A')
                 (A') (A") (A') (A') (A") (A') (A") (A') (A') (A")
                 (A') (A") (A") (A") (A') (A') (A') (A") (A') (A")
                 (A') (A') (A') (A') (A") (A') (A') (A") (A') (A")
                 (A') (A') (A") (A') (A') (A') (A') (A') (A") (A')
                 (A') (A') (A") (A') (A') (A") (A') (A") (A") (A')
                 (A") (A') (A") (A') (A') (A") (A') (A') (A') (A')
                 (A") (A') (A') (A") (A') (A") (A') (A') (A') (A")
                 (A") (A') (A') (A') (A') (A') (A") (A') (A') (A')
                 (A') (A') (A') (A') (A") (A") (A") (A') (A') (A')
                 (A') (A') (A') (A') (A') (A") (A') (A') (A') (A')
                 (A') (A') (A') (A') (A') (A') (A')
    40 initial guesses have been made.
 Convergence on wavefunction:    0.000001000000000
 Davidson Disk Diagonalization:  ConvIn= 1.00D-06 SkipCon=T Conv= 1.00D-06.
 Max sub-space:  2000 roots to seek:    40 dimension of matrix:         7434
 Iteration     1 Dimension    40 NMult     0 NNew     40
 CISAX will form    40 AO SS matrices at one time.
 NMat=    40 NSing=    40 JSym2X=-1.
 FoFJK:  IHMeth= 1 ICntrl=       0 DoSepK=T KAlg= 0 I1Cent=           0 FoldK=F
 IRaf=         1 NMat=      80 IRICut=       1 DoRegI=T DoRafI=F ISym2E=-1 IDoP0=3 IntGTp=3.
 FoFCou: FMM=F IPFlag=           0 FMFlag=      100000 FMFlg1=           0
         NFxFlg=           0 DoJE=F BraDBF=F KetDBF=F FulRan=T
         wScrn=  0.000000 ICntrl=       500 IOpCl=  0 I1Cent=           0 NGrid=           0
         NMat0=   40 NMatS0=     40 NMatT0=    0 NMatD0=   40 NMtDS0=    0 NMtDT0=    0
 Petite list used in FoFCou.
 New state      1 was old state      9
 New state      2 was old state      1
 New state      3 was old state      2
 New state      4 was old state      5
 New state      5 was old state      6
 New state      6 was old state      4
 New state      7 was old state      3
 New state      8 was old state     21
 New state      9 was old state      8
 New state     10 was old state      7
 Excitation Energies [eV] at current iteration:
 Root      1 :     5.416500538669919
 Root      2 :     5.656115218223429
 Root      3 :     5.944759382870040
 Root      4 :     6.064769909590308
 Root      5 :     6.505408506241547
 Root      6 :     6.582972861514782
 Root      7 :     6.596593425809102
 Root      8 :     6.618429636274895
 Root      9 :     6.915553251905570
 Root     10 :     6.962862175032739
 Root     11 :     7.023021213772890
 Root     12 :     7.094391038955544
 Root     13 :     7.264177961689813
 Root     14 :     7.343205656682887
 Root     15 :     7.494859025538943
 Root     16 :     7.553343874160367
 Root     17 :     7.648798919076584
 Root     18 :     7.685374310609292
 Root     19 :     7.809394392407014
 Root     20 :     7.821837139500097
 Root     21 :     7.962834246371194
 Root     22 :     8.044119310395173
 Root     23 :     8.203106905913181
 Root     24 :     8.304536661948262
 Root     25 :     8.338822026481463
 Root     26 :     8.400212674481606
 Root     27 :     8.474345059663182
 Root     28 :     8.492779790257108
 Root     29 :     8.547567648195875
 Root     30 :     8.683862963882033
 Root     31 :     8.847383956404318
 Root     32 :     8.876675277931165
 Root     33 :     8.896482677118954
 Root     34 :     8.898578421803808
 Root     35 :     8.924093721780089
 Root     36 :     9.024278886230197
 Root     37 :     9.124005225452750
 Root     38 :     9.165594654252740
 Root     39 :     9.359577413211053
 Root     40 :     9.488462752887877
 Iteration     2 Dimension    60 NMult    40 NNew     20
 CISAX will form    20 AO SS matrices at one time.
 NMat=    20 NSing=    20 JSym2X=-1.
 New state      1 was old state      2
 Root      1 not converged, maximum delta is    0.066784380516432
 New state      2 was old state      1
 Root      2 not converged, maximum delta is    0.032866634710213
 Root      3 not converged, maximum delta is    0.054578998331020
 Root      4 not converged, maximum delta is    0.276254068306824
 New state      5 was old state      6
 Root      5 not converged, maximum delta is    0.080103235888707
 New state      6 was old state      8
 Root      6 not converged, maximum delta is    0.231595157667732
 New state      7 was old state      5
 Root      7 not converged, maximum delta is    0.079059769453290
 New state      8 was old state      7
 Root      8 not converged, maximum delta is    0.062562118321073
 Root      9 not converged, maximum delta is    0.048559339978374
 Root     10 not converged, maximum delta is    0.232002870836617
 Excitation Energies [eV] at current iteration:
 Root      1 :     5.061873691800283   Change is   -0.594241526423146
 Root      2 :     5.290693457819455   Change is   -0.125807080850464
 Root      3 :     5.811144765966894   Change is   -0.133614616903146
 Root      4 :     5.926482345046633   Change is   -0.138287564543675
 Root      5 :     5.989559762063977   Change is   -0.593413099450805
 Root      6 :     6.148860351602866   Change is   -0.469569284672028
 Root      7 :     6.347092621755911   Change is   -0.158315884485636
 Root      8 :     6.492425305938367   Change is   -0.104168119870735
 Root      9 :     6.772065380097772   Change is   -0.143487871807799
 Root     10 :     6.780609494405362   Change is   -0.182252680627377
 Iteration     3 Dimension    80 NMult    60 NNew     20
 CISAX will form    20 AO SS matrices at one time.
 NMat=    20 NSing=    20 JSym2X=-1.
 Root      1 not converged, maximum delta is    0.025367644625125
 Root      2 not converged, maximum delta is    0.007507201732423
 Root      3 not converged, maximum delta is    0.004445695597860
 Root      4 not converged, maximum delta is    0.020904015123754
 Root      5 not converged, maximum delta is    0.045240921478464
 Root      6 not converged, maximum delta is    0.026041783303970
 Root      7 not converged, maximum delta is    0.004779721748014
 Root      8 not converged, maximum delta is    0.005439995981360
 New state      9 was old state     10
 Root      9 not converged, maximum delta is    0.244202308884339
 New state     10 was old state      9
 Root     10 not converged, maximum delta is    0.023532205003427
 Excitation Energies [eV] at current iteration:
 Root      1 :     5.017116127818676   Change is   -0.044757563981607
 Root      2 :     5.286307591445712   Change is   -0.004385866373743
 Root      3 :     5.808988636664287   Change is   -0.002156129302607
 Root      4 :     5.912828381345215   Change is   -0.013653963701418
 Root      5 :     5.945325156953974   Change is   -0.044234605110003
 Root      6 :     6.134210341277861   Change is   -0.014650010325005
 Root      7 :     6.343609851305223   Change is   -0.003482770450688
 Root      8 :     6.490160840353346   Change is   -0.002264465585021
 Root      9 :     6.661513439805297   Change is   -0.119096054600064
 Root     10 :     6.768325065137931   Change is   -0.003740314959841
 Iteration     4 Dimension   100 NMult    80 NNew     20
 CISAX will form    20 AO SS matrices at one time.
 NMat=    20 NSing=    20 JSym2X=-1.
 Root      1 not converged, maximum delta is    0.003567203898710
 Root      2 not converged, maximum delta is    0.001436705790736
 Root      3 not converged, maximum delta is    0.000579509735494
 Root      4 not converged, maximum delta is    0.004417250660000
 Root      5 not converged, maximum delta is    0.010188327643455
 Root      6 not converged, maximum delta is    0.006006718178227
 Root      7 not converged, maximum delta is    0.001517838634014
 Root      8 not converged, maximum delta is    0.001339611440208
 Root      9 not converged, maximum delta is    0.070332640141908
 Root     10 not converged, maximum delta is    0.154012074781150
 Excitation Energies [eV] at current iteration:
 Root      1 :     5.013791239340230   Change is   -0.003324888478446
 Root      2 :     5.286154216490520   Change is   -0.000153374955191
 Root      3 :     5.808934069900226   Change is   -0.000054566764061
 Root      4 :     5.912263543820782   Change is   -0.000564837524432
 Root      5 :     5.939332973223267   Change is   -0.005992183730707
 Root      6 :     6.133423010327310   Change is   -0.000787330950551
 Root      7 :     6.343441773047932   Change is   -0.000168078257291
 Root      8 :     6.490049624109904   Change is   -0.000111216243442
 Root      9 :     6.632565364891887   Change is   -0.028948074913411
 Root     10 :     6.766806511914555   Change is   -0.001518553223376
 Iteration     5 Dimension   120 NMult   100 NNew     20
 CISAX will form    20 AO SS matrices at one time.
 NMat=    20 NSing=    20 JSym2X=-1.
 Root      1 not converged, maximum delta is    0.001064771906277
 Root      2 not converged, maximum delta is    0.000177128745967
 Root      3 not converged, maximum delta is    0.000118276526047
 Root      4 not converged, maximum delta is    0.000326001823319
 Root      5 not converged, maximum delta is    0.002194445642562
 Root      6 not converged, maximum delta is    0.000749211883090
 Root      7 not converged, maximum delta is    0.000233772159089
 Root      8 not converged, maximum delta is    0.000153043089964
 Root      9 not converged, maximum delta is    0.012290615613269
 Root     10 not converged, maximum delta is    0.410560004794233
 Excitation Energies [eV] at current iteration:
 Root      1 :     5.013574924947926   Change is   -0.000216314392303
 Root      2 :     5.286148896765755   Change is   -0.000005319724766
 Root      3 :     5.808932475351392   Change is   -0.000001594548834
 Root      4 :     5.912242790627962   Change is   -0.000020753192821
 Root      5 :     5.938750969392267   Change is   -0.000582003831001
 Root      6 :     6.133389846466241   Change is   -0.000033163861069
 Root      7 :     6.343435845508883   Change is   -0.000005927539049
 Root      8 :     6.490045305513817   Change is   -0.000004318596087
 Root      9 :     6.628378908791490   Change is   -0.004186456100397
 Root     10 :     6.754421813087903   Change is   -0.012384698826652
 Iteration     6 Dimension   140 NMult   120 NNew     20
 CISAX will form    20 AO SS matrices at one time.
 NMat=    20 NSing=    20 JSym2X=-1.
 Root      1 not converged, maximum delta is    0.000094892364677
 Root      2 not converged, maximum delta is    0.000020228315003
 Root      3 not converged, maximum delta is    0.000016380916549
 Root      4 not converged, maximum delta is    0.000057806225078
 Root      5 not converged, maximum delta is    0.000464070917810
 Root      6 not converged, maximum delta is    0.000070634632316
 Root      7 not converged, maximum delta is    0.000035674163738
 Root      8 not converged, maximum delta is    0.000020327100004
 Root      9 not converged, maximum delta is    0.005407070251056
 Root     10 not converged, maximum delta is    0.010608629145214
 Excitation Energies [eV] at current iteration:
 Root      1 :     5.013569443273955   Change is   -0.000005481673972
 Root      2 :     5.286148734354388   Change is   -0.000000162411368
 Root      3 :     5.808932424327216   Change is   -0.000000051024176
 Root      4 :     5.912242176723659   Change is   -0.000000613904303
 Root      5 :     5.938712795657013   Change is   -0.000038173735253
 Root      6 :     6.133388906692952   Change is   -0.000000939773289
 Root      7 :     6.343435620428360   Change is   -0.000000225080523
 Root      8 :     6.490045134724789   Change is   -0.000000170789028
 Root      9 :     6.627943492860736   Change is   -0.000435415930754
 Root     10 :     6.753619140586610   Change is   -0.000802672501293
 Iteration     7 Dimension   160 NMult   140 NNew     20
 CISAX will form    20 AO SS matrices at one time.
 NMat=    20 NSing=    20 JSym2X=-1.
 Root      1 not converged, maximum delta is    0.000019547170310
 Root      2 not converged, maximum delta is    0.000002373178531
 Root      3 not converged, maximum delta is    0.000002517936987
 Root      4 not converged, maximum delta is    0.000007449520748
 Root      5 not converged, maximum delta is    0.000133569695834
 Root      6 not converged, maximum delta is    0.000009402153352
 Root      7 not converged, maximum delta is    0.000006085358369
 Root      8 not converged, maximum delta is    0.000003559463817
 Root      9 not converged, maximum delta is    0.000697544442726
 Root     10 not converged, maximum delta is    0.000474300005586
 Excitation Energies [eV] at current iteration:
 Root      1 :     5.013569275283060   Change is   -0.000000167990895
 Root      2 :     5.286148730641033   Change is   -0.000000003713355
 Root      3 :     5.808932422691893   Change is   -0.000000001635324
 Root      4 :     5.912242153593314   Change is   -0.000000023130345
 Root      5 :     5.938710946875458   Change is   -0.000001848781556
 Root      6 :     6.133388869905430   Change is   -0.000000036787522
 Root      7 :     6.343435611446571   Change is   -0.000000008981789
 Root      8 :     6.490045128574659   Change is   -0.000000006150130
 Root      9 :     6.627917338569238   Change is   -0.000026154291498
 Root     10 :     6.753587081685038   Change is   -0.000032058901572
 Iteration     8 Dimension   180 NMult   160 NNew     20
 CISAX will form    20 AO SS matrices at one time.
 NMat=    20 NSing=    20 JSym2X=-1.
 Root      1 not converged, maximum delta is    0.000004117257676
 Root      2 has converged.
 Root      3 has converged.
 Root      4 not converged, maximum delta is    0.000001488128005
 Root      5 not converged, maximum delta is    0.000011213081484
 Root      6 not converged, maximum delta is    0.000002783009761
 Root      7 has converged.
 Root      8 has converged.
 Root      9 not converged, maximum delta is    0.000096793970472
 Root     10 not converged, maximum delta is    0.000056572373730
 Excitation Energies [eV] at current iteration:
 Root      1 :     5.013569269643933   Change is   -0.000000005639127
 Root      2 :     5.286148730553742   Change is   -0.000000000087291
 Root      3 :     5.808932422637930   Change is   -0.000000000053962
 Root      4 :     5.912242152726054   Change is   -0.000000000867259
 Root      5 :     5.938710874281359   Change is   -0.000000072594099
 Root      6 :     6.133388868410469   Change is   -0.000000001494961
 Root      7 :     6.343435611077252   Change is   -0.000000000369319
 Root      8 :     6.490045128336815   Change is   -0.000000000237843
 Root      9 :     6.627915709213911   Change is   -0.000001629355327
 Root     10 :     6.753585458683011   Change is   -0.000001623002027
 Iteration     9 Dimension   192 NMult   180 NNew     12
 CISAX will form    12 AO SS matrices at one time.
 NMat=    12 NSing=    12 JSym2X=-1.
 Root      1 not converged, maximum delta is    0.000001135250254
 Root      2 has converged.
 Root      3 has converged.
 Root      4 has converged.
 Root      5 not converged, maximum delta is    0.000005044289751
 Root      6 has converged.
 Root      7 has converged.
 Root      8 has converged.
 Root      9 not converged, maximum delta is    0.000034385055058
 Root     10 not converged, maximum delta is    0.000008896883477
 Excitation Energies [eV] at current iteration:
 Root      1 :     5.013569269487309   Change is   -0.000000000156624
 Root      2 :     5.286148730553307   Change is   -0.000000000000435
 Root      3 :     5.808932422637535   Change is   -0.000000000000396
 Root      4 :     5.912242152696215   Change is   -0.000000000029839
 Root      5 :     5.938710871638879   Change is   -0.000000002642480
 Root      6 :     6.133388868350155   Change is   -0.000000000060315
 Root      7 :     6.343435611076967   Change is   -0.000000000000285
 Root      8 :     6.490045128335852   Change is   -0.000000000000963
 Root      9 :     6.627915623496007   Change is   -0.000000085717905
 Root     10 :     6.753585394424703   Change is   -0.000000064258308
 Iteration    10 Dimension   200 NMult   192 NNew      8
 CISAX will form     8 AO SS matrices at one time.
 NMat=     8 NSing=     8 JSym2X=-1.
 Root      1 has converged.
 Root      2 has converged.
 Root      3 has converged.
 Root      4 has converged.
 Root      5 has converged.
 Root      6 has converged.
 Root      7 has converged.
 Root      8 has converged.
 Root      9 not converged, maximum delta is    0.000007132907661
 Root     10 not converged, maximum delta is    0.000002164743044
 Excitation Energies [eV] at current iteration:
 Root      1 :     5.013569269482768   Change is   -0.000000000004541
 Root      2 :     5.286148730553167   Change is   -0.000000000000140
 Root      3 :     5.808932422637493   Change is   -0.000000000000042
 Root      4 :     5.912242152696187   Change is   -0.000000000000028
 Root      5 :     5.938710871496037   Change is   -0.000000000142842
 Root      6 :     6.133388868349497   Change is   -0.000000000000657
 Root      7 :     6.343435611077006   Change is    0.000000000000039
 Root      8 :     6.490045128335549   Change is   -0.000000000000304
 Root      9 :     6.627915618177294   Change is   -0.000000005318713
 Root     10 :     6.753585391469469   Change is   -0.000000002955233
 Iteration    11 Dimension   204 NMult   200 NNew      4
 CISAX will form     4 AO SS matrices at one time.
 NMat=     4 NSing=     4 JSym2X=-1.
 Root      1 has converged.
 Root      2 has converged.
 Root      3 has converged.
 Root      4 has converged.
 Root      5 has converged.
 Root      6 has converged.
 Root      7 has converged.
 Root      8 has converged.
 Root      9 not converged, maximum delta is    0.000001063915391
 Root     10 has converged.
 Excitation Energies [eV] at current iteration:
 Root      1 :     5.013569269482768   Change is    0.000000000000000
 Root      2 :     5.286148730553120   Change is   -0.000000000000047
 Root      3 :     5.808932422637450   Change is   -0.000000000000043
 Root      4 :     5.912242152696076   Change is   -0.000000000000111
 Root      5 :     5.938710871494168   Change is   -0.000000000001869
 Root      6 :     6.133388868349390   Change is   -0.000000000000107
 Root      7 :     6.343435611076644   Change is   -0.000000000000363
 Root      8 :     6.490045128335422   Change is   -0.000000000000127
 Root      9 :     6.627915617862302   Change is   -0.000000000314992
 Root     10 :     6.753585391326419   Change is   -0.000000000143051
 Iteration    12 Dimension   206 NMult   204 NNew      2
 CISAX will form     2 AO SS matrices at one time.
 NMat=     2 NSing=     2 JSym2X=-1.
 Root      1 has converged.
 Root      2 has converged.
 Root      3 has converged.
 Root      4 has converged.
 Root      5 has converged.
 Root      6 has converged.
 Root      7 has converged.
 Root      8 has converged.
 Root      9 has converged.
 Root     10 has converged.
 Excitation Energies [eV] at current iteration:
 Root      1 :     5.013569269482702   Change is   -0.000000000000066
 Root      2 :     5.286148730553135   Change is    0.000000000000015
 Root      3 :     5.808932422637450   Change is    0.000000000000000
 Root      4 :     5.912242152696132   Change is    0.000000000000056
 Root      5 :     5.938710871493739   Change is   -0.000000000000429
 Root      6 :     6.133388868349390   Change is    0.000000000000000
 Root      7 :     6.343435611076617   Change is   -0.000000000000026
 Root      8 :     6.490045128335422   Change is    0.000000000000000
 Root      9 :     6.627915617845669   Change is   -0.000000000016633
 Root     10 :     6.753585391326456   Change is    0.000000000000037
 Convergence achieved on expansion vectors.
 ***********************************************************************
 Excited states from <AA,BB:AA,BB> singles matrix:
 ***********************************************************************
 
 1PDM for each excited state written to RWF  633
 Ground to excited state transition densities written to RWF  633
 Ground to excited state transition electric dipole moments (Au):
       state          X           Y           Z        Dip. S.      Osc.
         1         0.3017      0.6746      0.0000      0.5461      0.0671
         2        -0.0000     -0.0000     -0.1270      0.0161      0.0021
         3         0.0000      0.0000     -0.1625      0.0264      0.0038
         4        -0.0000     -0.0000     -0.0500      0.0025      0.0004
         5        -0.8999     -0.3339      0.0000      0.9213      0.1340
         6         0.0000      0.0000     -0.0121      0.0001      0.0000
         7        -0.0000     -0.0000     -0.1641      0.0269      0.0042
         8         0.0000     -0.0000     -0.2398      0.0575      0.0091
         9        -1.4218      0.6197     -0.0000      2.4054      0.3906
        10        -0.0000      0.0000      0.0477      0.0023      0.0004
 Ground to excited state transition velocity dipole moments (Au):
       state          X           Y           Z        Dip. S.      Osc.
         1        -0.0615     -0.1289      0.0000      0.0204      0.0738
         2         0.0000      0.0000      0.0265      0.0007      0.0024
         3        -0.0000      0.0000      0.0333      0.0011      0.0035
         4         0.0000     -0.0000      0.0223      0.0005      0.0015
         5         0.1917      0.0597     -0.0000      0.0403      0.1231
         6        -0.0000     -0.0000     -0.0016      0.0000      0.0000
         7         0.0000      0.0000      0.0369      0.0014      0.0039
         8        -0.0000      0.0000      0.0560      0.0031      0.0088
         9         0.3421     -0.1519     -0.0000      0.1401      0.3834
        10         0.0000     -0.0000     -0.0118      0.0001      0.0004
 Ground to excited state transition magnetic dipole moments (Au):
       state          X           Y           Z
         1         0.0000      0.0000     -1.3568
         2         0.3684      0.0290     -0.0000
         3        -0.3141     -0.2199     -0.0000
         4         0.7591     -0.1437      0.0000
         5        -0.0000     -0.0000      0.4629
         6         0.2020     -0.3511     -0.0000
         7         0.2780     -0.4022     -0.0000
         8        -0.2392     -0.1809     -0.0000
         9         0.0000     -0.0000      0.5972
        10         0.1102     -0.1172      0.0000
 Ground to excited state transition velocity quadrupole moments (Au):
       state          XX          YY          ZZ          XY          XZ          YZ
         1        -0.1516      0.2286     -0.0035      0.2352     -0.0000      0.0000
         2         0.0000     -0.0000      0.0000     -0.0000     -0.0086      0.0934
         3        -0.0000      0.0000      0.0000     -0.0000      0.1615     -0.1971
         4         0.0000     -0.0000     -0.0000      0.0000      0.0217      0.0617
         5         0.7166     -0.1408     -0.0335      0.2891      0.0000      0.0000
         6        -0.0000     -0.0000     -0.0000      0.0000      0.0098      0.0006
         7         0.0000      0.0000      0.0000      0.0000      0.3180      0.2085
         8        -0.0000     -0.0000     -0.0000     -0.0000      0.2486     -0.1619
         9        -0.4778      0.0814      0.1764      0.0125      0.0000      0.0000
        10         0.0000     -0.0000      0.0000      0.0000      0.0754     -0.0398
 <0|del|b> * <b|rxdel|0> + <0|del|b> * <b|delr+rdel|0>
 Rotatory Strengths (R) in cgs (10**-40 erg-esu-cm/Gauss)
       state          XX          YY          ZZ    R(velocity)    E-M Angle
         1        -0.0000     -0.0000     -0.0000     -0.0000       90.00
         2        -0.0000      0.0000      0.0000     -0.0000       90.00
         3        -0.0000      0.0000      0.0000      0.0000       90.00
         4         0.0000      0.0000      0.0000      0.0000       90.00
         5        -0.0000     -0.0000     -0.0000     -0.0000       90.00
         6         0.0000     -0.0000     -0.0000     -0.0000       90.00
         7        -0.0000      0.0000      0.0000      0.0000       90.00
         8        -0.0000      0.0000      0.0000      0.0000       90.00
         9         0.0000      0.0000      0.0000      0.0000       90.00
        10         0.0000      0.0000      0.0000      0.0000       90.00
 1/2[<0|r|b>*<b|rxdel|0> + (<0|rxdel|b>*<b|r|0>)*]
 Rotatory Strengths (R) in cgs (10**-40 erg-esu-cm/Gauss)
       state          XX          YY          ZZ     R(length)
         1        -0.0000     -0.0000      0.0000     -0.0000
         2         0.0000      0.0000     -0.0000     -0.0000
         3         0.0000      0.0000     -0.0000      0.0000
         4         0.0000     -0.0000      0.0000      0.0000
         5        -0.0000     -0.0000     -0.0000     -0.0000
         6        -0.0000      0.0000     -0.0000     -0.0000
         7         0.0000     -0.0000     -0.0000      0.0000
         8         0.0000     -0.0000     -0.0000      0.0000
         9         0.0000      0.0000      0.0000      0.0000
        10         0.0000      0.0000     -0.0000      0.0000
  1/2[<0|del|b>*<b|r|0> + (<0|r|b>*<b|del|0>)*] (Au)
       state          X           Y           Z        Dip. S.   Osc.(frdel)
         1        -0.0185     -0.0869      0.0000      0.1055      0.0703
         2        -0.0000     -0.0000     -0.0034      0.0034      0.0022
         3        -0.0000      0.0000     -0.0054      0.0054      0.0036
         4        -0.0000      0.0000     -0.0011      0.0011      0.0007
         5        -0.1725     -0.0199     -0.0000      0.1924      0.1283
         6        -0.0000     -0.0000      0.0000     -0.0000     -0.0000
         7        -0.0000     -0.0000     -0.0061      0.0061      0.0040
         8        -0.0000     -0.0000     -0.0134      0.0134      0.0090
         9        -0.4864     -0.0941      0.0000      0.5805      0.3870
        10        -0.0000     -0.0000     -0.0006      0.0006      0.0004

 Excitation energies and oscillator strengths:
 
 Excited State   1:      Singlet-A'     5.0136 eV  247.30 nm  f=0.0671  <S**2>=0.000
      29 -> 30         0.69050
 
 Excited State   2:      Singlet-A"     5.2861 eV  234.55 nm  f=0.0021  <S**2>=0.000
      26 -> 30         0.50661
      26 -> 34         0.11487
      27 -> 30        -0.45413
      27 -> 34        -0.10823
 
 Excited State   3:      Singlet-A"     5.8089 eV  213.44 nm  f=0.0038  <S**2>=0.000
      28 -> 31        -0.16526
      29 -> 31         0.64632
      29 -> 32        -0.14937
 
 Excited State   4:      Singlet-A"     5.9122 eV  209.71 nm  f=0.0004  <S**2>=0.000
      26 -> 30         0.36317
      26 -> 34         0.17939
      27 -> 30         0.35048
      27 -> 34         0.40119
      27 -> 41        -0.12690
 
 Excited State   5:      Singlet-A'     5.9387 eV  208.77 nm  f=0.1340  <S**2>=0.000
      28 -> 30         0.67460
      29 -> 34        -0.15740
 This state for optimization and/or second-order correction.
 Total Energy, E(TD-HF/TD-DFT) =  -394.655595294    
 Copying the excited state density for this state as the 1-particle RhoCI density.
 
 Excited State   6:      Singlet-A"     6.1334 eV  202.15 nm  f=0.0000  <S**2>=0.000
      26 -> 30        -0.24289
      27 -> 30        -0.40331
      27 -> 34         0.47874
      27 -> 41        -0.15241
 
 Excited State   7:      Singlet-A"     6.3434 eV  195.45 nm  f=0.0042  <S**2>=0.000
      28 -> 31         0.46409
      28 -> 32         0.44806
      29 -> 32        -0.15142
      29 -> 33         0.17353
 
 Excited State   8:      Singlet-A"     6.4900 eV  191.04 nm  f=0.0091  <S**2>=0.000
      28 -> 31         0.14663
      28 -> 33         0.11380
      29 -> 31         0.18181
      29 -> 32         0.62013
      29 -> 33        -0.12893
      29 -> 37        -0.10427
 
 Excited State   9:      Singlet-A'     6.6279 eV  187.06 nm  f=0.3906  <S**2>=0.000
      28 -> 30         0.15163
      28 -> 34        -0.18649
      29 -> 34         0.63144
 
 Excited State  10:      Singlet-A"     6.7536 eV  183.58 nm  f=0.0004  <S**2>=0.000
      26 -> 30        -0.19051
      26 -> 34         0.61738
      26 -> 41        -0.14981
      27 -> 34        -0.11615
      29 -> 33        -0.13428
 SavETr:  write IOETrn=   770 NScale= 10 NData=  16 NLR=1 NState=   10 LETran=     190.
 The selected state is a singlet.
 CISGrd: IGrad=3 NXY=2 DFT=T
 CISAX will form     1 AO SS matrices at one time.
 NMat=     1 NSing=     1 JSym2X=-1.
 Leave Link  914 at Tue Nov 22 14:23:50 2022, MaxMem=   671088640 cpu:            1412.1 elap:              28.3
 (Enter /shared/gaussian/g16.b01/AVX2/g16/l1002.exe)
 Minotr:  Closed shell wavefunction.
          Computing CIS/TDA/TD derivatives.
          Using Z-Vector for PSCF gradient.
          Skipping F1 and S1 gradient terms here.
          IDoAtm=1111111111111
          Frozen-core window.
          Direct CPHF calculation.
          Differentiating once with respect to electric field.
                with respect to dipole field.
          Differentiating once with respect to nuclear coordinates.
          Requested convergence is 1.0D-10 RMS, and 1.0D-09 maximum.
          NewPWx=F KeepS1=T KeepF1=T KeepIn=T MapXYZ=F SortEE=F KeepMc=T.
 Two-electron integral symmetry used by symmetrizing perturbed Fock matrices.
          MDV=     671088640 using IRadAn=       5.
          Solving linear equations separately, MaxMat=     350.
          There are     1 degrees of freedom in the 1st order CPHF.  IDoFFX=0 NUNeed=     1.
 FoFJK:  IHMeth= 1 ICntrl=       0 DoSepK=T KAlg= 0 I1Cent=           0 FoldK=F
 IRaf=         1 NMat=       1 IRICut=       1 DoRegI=T DoRafI=F ISym2E=-1 IDoP0=0 IntGTp=1.
 FoFCou: FMM=F IPFlag=           0 FMFlag=      100000 FMFlg1=           0
         NFxFlg=           0 DoJE=T BraDBF=F KetDBF=F FulRan=T
         wScrn=  0.000000 ICntrl=       500 IOpCl=  0 I1Cent=           0 NGrid=           0
         NMat0=    1 NMatS0=      1 NMatT0=    0 NMatD0=    1 NMtDS0=    0 NMtDT0=    0
 Petite list used in FoFCou.
 LinEq1:  Iter=  0 NonCon=     1 RMS=1.26D-02 Max=3.24D-01 NDo=     1
 AX will form     1 AO Fock derivatives at one time.
 LinEq1:  Iter=  1 NonCon=     1 RMS=4.48D-03 Max=1.36D-01 NDo=     1
 LinEq1:  Iter=  2 NonCon=     1 RMS=2.04D-03 Max=5.87D-02 NDo=     1
 LinEq1:  Iter=  3 NonCon=     1 RMS=1.18D-03 Max=2.83D-02 NDo=     1
 LinEq1:  Iter=  4 NonCon=     1 RMS=5.71D-04 Max=1.65D-02 NDo=     1
 LinEq1:  Iter=  5 NonCon=     1 RMS=3.97D-04 Max=1.41D-02 NDo=     1
 LinEq1:  Iter=  6 NonCon=     1 RMS=1.52D-04 Max=2.40D-03 NDo=     1
 LinEq1:  Iter=  7 NonCon=     1 RMS=8.73D-05 Max=2.65D-03 NDo=     1
 LinEq1:  Iter=  8 NonCon=     1 RMS=2.56D-05 Max=4.17D-04 NDo=     1
 LinEq1:  Iter=  9 NonCon=     1 RMS=1.19D-05 Max=3.05D-04 NDo=     1
 LinEq1:  Iter= 10 NonCon=     1 RMS=5.42D-06 Max=1.10D-04 NDo=     1
 LinEq1:  Iter= 11 NonCon=     1 RMS=3.16D-06 Max=7.19D-05 NDo=     1
 LinEq1:  Iter= 12 NonCon=     1 RMS=1.28D-06 Max=1.82D-05 NDo=     1
 LinEq1:  Iter= 13 NonCon=     1 RMS=6.04D-07 Max=1.15D-05 NDo=     1
 LinEq1:  Iter= 14 NonCon=     1 RMS=2.20D-07 Max=4.54D-06 NDo=     1
 LinEq1:  Iter= 15 NonCon=     1 RMS=5.24D-08 Max=1.39D-06 NDo=     1
 LinEq1:  Iter= 16 NonCon=     1 RMS=2.34D-08 Max=3.06D-07 NDo=     1
 LinEq1:  Iter= 17 NonCon=     1 RMS=6.21D-09 Max=1.41D-07 NDo=     1
 LinEq1:  Iter= 18 NonCon=     1 RMS=1.27D-09 Max=2.51D-08 NDo=     1
 LinEq1:  Iter= 19 NonCon=     1 RMS=2.62D-10 Max=3.44D-09 NDo=     1
 LinEq1:  Iter= 20 NonCon=     0 RMS=4.77D-11 Max=8.38D-10 NDo=     1
 Linear equations converged to 1.000D-10 1.000D-09 after    20 iterations.
          There are     1 degrees of freedom in the 1st order CPHF.  IDoFFX=0 NUNeed=     1.
 End of Minotr F.D. properties file   721 does not exist.
 End of Minotr F.D. properties file   722 does not exist.
 End of Minotr F.D. properties file   788 does not exist.
 Leave Link 1002 at Tue Nov 22 14:24:10 2022, MaxMem=   671088640 cpu:             950.4 elap:              19.1
 (Enter /shared/gaussian/g16.b01/AVX2/g16/l1101.exe)
 Using compressed Sx but separate Hx and Fx, NAtomX=    13.
 Will process     14 centers per pass.
 Leave Link 1101 at Tue Nov 22 14:24:10 2022, MaxMem=   671088640 cpu:               9.7 elap:               0.2
 (Enter /shared/gaussian/g16.b01/AVX2/g16/l1102.exe)
 Use density number 6.
 Symmetrizing basis deriv contribution to polar:
 IMax=3 JMax=2 DiffMx= 0.00D+00
 Leave Link 1102 at Tue Nov 22 14:24:10 2022, MaxMem=   671088640 cpu:               0.8 elap:               0.0
 (Enter /shared/gaussian/g16.b01/AVX2/g16/l1110.exe)
 Forming Gx(P) for the SCF density, NAtomX=    13.
 Integral derivatives from FoFJK, PRISM(SPDF).
 Do as many integral derivatives as possible in FoFJK.
 G2DrvN: MDV=     671087490.
 G2DrvN: will do    14 centers at a time, making    1 passes.
 Calling FoFCou, ICntrl=  3107 FMM=F I1Cent=   0 AccDes= 0.00D+00.
 FoFJK:  IHMeth= 1 ICntrl=    3107 DoSepK=T KAlg= 0 I1Cent=           0 FoldK=F
 IRaf=         1 NMat=       1 IRICut=       1 DoRegI=T DoRafI=F ISym2E= 1 IDoP0=0 IntGTp=1.
 FoFCou: FMM=F IPFlag=           0 FMFlag=      100000 FMFlg1=           0
         NFxFlg=           0 DoJE=F BraDBF=F KetDBF=F FulRan=T
         wScrn=  0.000000 ICntrl=      3507 IOpCl=  0 I1Cent=           0 NGrid=           0
         NMat0=    1 NMatS0=      1 NMatT0=    0 NMatD0=    1 NMtDS0=    0 NMtDT0=    0
 Petite list used in FoFCou.
 Forming Gx(P) for generalized density number  6 NAtomX=    13.
 Integral derivatives from FoFJK, PRISM(SPDF).
 Do as many integral derivatives as possible in FoFJK.
 G2DrvN: MDV=     671087490.
 G2DrvN: will do    14 centers at a time, making    1 passes.
 Calling FoFCou, ICntrl=  3107 FMM=F I1Cent=   0 AccDes= 0.00D+00.
 Forming Gx(T) for CIS/TDA/TD state  5 NAtomX=    13.
 Integral derivatives from FoFJK, PRISM(SPDF).
 Do as many integral derivatives as possible in FoFJK.
 G2DrvN: MDV=     671087490.
 G2DrvN: will do    14 centers at a time, making    1 passes.
 Calling FoFCou, ICntrl=  3107 FMM=F I1Cent=   0 AccDes= 0.00D+00.
 End of G2Drv F.D. properties file   721 does not exist.
 End of G2Drv F.D. properties file   722 does not exist.
 End of G2Drv F.D. properties file   788 does not exist.
 Leave Link 1110 at Tue Nov 22 14:24:18 2022, MaxMem=   671088640 cpu:             397.4 elap:               8.0
 (Enter /shared/gaussian/g16.b01/AVX2/g16/l1002.exe)
 Minotr:  Closed shell wavefunction.
          IDoAtm=1111111111111
          Frozen-core window.
          Direct CPHF calculation.
          Differentiating once with respect to electric field.
                with respect to dipole field.
          Differentiating once with respect to nuclear coordinates.
          Requested convergence is 1.0D-08 RMS, and 1.0D-07 maximum.
          Secondary convergence is 1.0D-12 RMS, and 1.0D-12 maximum.
          NewPWx=T KeepS1=T KeepF1=T KeepIn=T MapXYZ=F SortEE=F KeepMc=T.
         3973 words used for storage of precomputed grid.
 Two-electron integrals replicated using symmetry.
          MDV=     671088640 using IRadAn=       1.
          Solving linear equations simultaneously, MaxMat=     350.
 FoF2E skips out because all densities are zero.
 CalDSu exits because no D1Ps are significant.
 FoFJK:  IHMeth= 1 ICntrl=       0 DoSepK=T KAlg= 0 I1Cent=           0 FoldK=F
 IRaf=         1 NMat=      39 IRICut=       1 DoRegI=T DoRafI=F ISym2E= 2 IDoP0=3 IntGTp=3.
 FoFCou: FMM=F IPFlag=           0 FMFlag=      100000 FMFlg1=           0
         NFxFlg=           0 DoJE=F BraDBF=F KetDBF=F FulRan=T
         wScrn=  0.000000 ICntrl=       500 IOpCl=  0 I1Cent=           0 NGrid=           0
         NMat0=   39 NMatS0=     39 NMatT0=    0 NMatD0=   39 NMtDS0=    0 NMtDT0=    0
 Integrals replicated using symmetry in FoFCou.
          There are    42 degrees of freedom in the 1st order CPHF.  IDoFFX=6 NUNeed=    42.
     39 vectors produced by pass  0 Test12= 1.22D-14 2.38D-09 XBig12= 6.55D+01 4.24D+00.
 AX will form    39 AO Fock derivatives at one time.
     39 vectors produced by pass  1 Test12= 1.22D-14 2.38D-09 XBig12= 9.10D+00 4.79D-01.
     39 vectors produced by pass  2 Test12= 1.22D-14 2.38D-09 XBig12= 1.91D-01 6.52D-02.
     39 vectors produced by pass  3 Test12= 1.22D-14 2.38D-09 XBig12= 2.01D-03 6.19D-03.
     39 vectors produced by pass  4 Test12= 1.22D-14 2.38D-09 XBig12= 1.24D-05 4.42D-04.
     39 vectors produced by pass  5 Test12= 1.22D-14 2.38D-09 XBig12= 5.96D-08 3.05D-05.
     34 vectors produced by pass  6 Test12= 1.22D-14 2.38D-09 XBig12= 2.31D-10 1.78D-06.
     13 vectors produced by pass  7 Test12= 1.22D-14 2.38D-09 XBig12= 8.95D-13 1.32D-07.
      3 vectors produced by pass  8 Test12= 1.22D-14 2.38D-09 XBig12= 3.21D-15 1.12D-08.
 InvSVY:  IOpt=1 It=  1 EMax= 2.66D-15
 Solved reduced A of dimension   284 with    42 vectors.
 FullF1:  Do perturbations      1 to      42.
 Isotropic polarizability for W=    0.000000       71.87 Bohr**3.
 Saving first derivative matrices.
 End of Minotr F.D. properties file   721 does not exist.
 End of Minotr F.D. properties file   722 does not exist.
 End of Minotr F.D. properties file   788 does not exist.
 Leave Link 1002 at Tue Nov 22 14:24:28 2022, MaxMem=   671088640 cpu:             523.8 elap:              10.5
 (Enter /shared/gaussian/g16.b01/AVX2/g16/l1014.exe)
 This link is doing    42 degrees of freedom
 Form MO integral derivatives with frozen-active canonical formalism.
 CISSec: MDV=     671082504
 Doing TD-HF/TD-DFT second derivatives, IDoFFX=6 IOneXC=4 IRadAn=         1.
 Frozen orbitals handled with amplitudes over full window.
 Frozen-core window:  NFC=   8 NFV=   0.
 Symmetry is being used.
 Would need an additional            24000000 words for in-memory AO integral storage.
 The selected state is a singlet.
 CISGrX: IGrad=3 NXY=2 DFT=T
 CISAX will form    42 AO SS matrices at one time.
 NMat=    42 NSing=    42 JSym2X= 2.
 FoFJK:  IHMeth= 1 ICntrl=       0 DoSepK=T KAlg= 0 I1Cent=           0 FoldK=F
 IRaf=         1 NMat=      84 IRICut=       1 DoRegI=T DoRafI=F ISym2E= 2 IDoP0=3 IntGTp=3.
 FoFCou: FMM=F IPFlag=           0 FMFlag=      100000 FMFlg1=           0
         NFxFlg=           0 DoJE=F BraDBF=F KetDBF=F FulRan=T
         wScrn=  0.000000 ICntrl=       500 IOpCl=  0 I1Cent=           0 NGrid=           0
         NMat0=   42 NMatS0=     42 NMatT0=    0 NMatD0=   42 NMtDS0=    0 NMtDT0=    0
 Integrals replicated using symmetry in FoFCou.
     39 vectors produced by pass  0 Test12= 1.77D-14 2.38D-09 XBig12= 5.85D+01 5.69D+00.
 AX will form    39 AO Fock derivatives at one time.
     39 vectors produced by pass  1 Test12= 1.77D-14 2.38D-09 XBig12= 6.70D+00 2.04D+00.
     39 vectors produced by pass  2 Test12= 1.77D-14 2.38D-09 XBig12= 1.46D+00 2.67D-01.
     39 vectors produced by pass  3 Test12= 1.77D-14 2.38D-09 XBig12= 3.77D-02 4.34D-02.
     39 vectors produced by pass  4 Test12= 1.77D-14 2.38D-09 XBig12= 8.33D-04 5.03D-03.
     39 vectors produced by pass  5 Test12= 1.77D-14 2.38D-09 XBig12= 1.09D-05 7.17D-04.
     39 vectors produced by pass  6 Test12= 1.77D-14 2.38D-09 XBig12= 1.47D-07 7.08D-05.
     31 vectors produced by pass  7 Test12= 1.77D-14 2.38D-09 XBig12= 1.30D-09 4.91D-06.
     21 vectors produced by pass  8 Test12= 1.77D-14 2.38D-09 XBig12= 1.24D-11 6.57D-07.
      9 vectors produced by pass  9 Test12= 1.77D-14 2.38D-09 XBig12= 1.25D-13 7.54D-08.
      3 vectors produced by pass 10 Test12= 1.77D-14 2.38D-09 XBig12= 1.54D-15 9.19D-09.
 InvSVY:  IOpt=1 It=  1 EMax= 5.08D-15
 Solved reduced A of dimension   337 with    42 vectors.
 Tx.T =  3.40D-05 for pert.     2
 Tx.T =  2.39D-06 for pert.     1
 Tx.T = -1.31D-06 for pert.    11
 Tx.T =  1.14D-06 for pert.    23
 Tx.T =  8.94D-07 for pert.    14
 Tx.T = -7.54D-07 for pert.     5
 Tx.T =  7.12D-07 for pert.     7
 Tx.T = -5.09D-07 for pert.    16
 Tx.T = -3.87D-07 for pert.    10
 Tx.T = -3.40D-07 for pert.     8
 SavDET:  read IOETrn=   770 NScale= 10 NData=  16 NLR=1 NState=   10 NDeriv=    0 LETran=     190.
 SavDET: write IOETrn=   770 NScale= 10 NData=  16 NLR=1 NState=   10 NDeriv=   42 LETran=     862.
 TDDxLx will form    42 C1x/S1x matrices at one time.
 Interchange theorem applied.
 Leave Link 1014 at Tue Nov 22 14:24:47 2022, MaxMem=   671088640 cpu:             936.1 elap:              18.8
 (Enter /shared/gaussian/g16.b01/AVX2/g16/l601.exe)
 Copying SCF densities to generalized density rwf, IOpCl= 0 IROHF=0.

 **********************************************************************

            Population analysis using the SCF Density.

 **********************************************************************

 Orbital symmetries:
       Occupied  (A') (A') (A') (A') (A') (A') (A') (A') (A') (A')
                 (A') (A') (A') (A') (A') (A') (A') (A') (A') (A")
                 (A') (A') (A') (A") (A") (A') (A') (A") (A")
       Virtual   (A") (A') (A') (A') (A") (A') (A") (A') (A') (A")
                 (A') (A") (A') (A') (A') (A") (A') (A') (A") (A')
                 (A') (A") (A') (A') (A') (A") (A') (A') (A') (A")
                 (A') (A') (A') (A') (A') (A') (A") (A') (A') (A')
                 (A') (A') (A') (A') (A') (A') (A') (A') (A") (A')
                 (A") (A') (A") (A') (A') (A") (A') (A') (A') (A')
                 (A') (A') (A') (A') (A') (A") (A') (A") (A') (A')
                 (A') (A") (A') (A') (A") (A') (A") (A') (A') (A")
                 (A') (A") (A") (A") (A') (A') (A') (A") (A') (A")
                 (A') (A') (A') (A') (A") (A') (A') (A") (A') (A")
                 (A') (A') (A") (A') (A') (A') (A') (A') (A") (A')
                 (A') (A') (A") (A') (A') (A") (A') (A") (A") (A')
                 (A") (A') (A") (A') (A') (A") (A') (A') (A') (A')
                 (A") (A') (A') (A") (A') (A") (A') (A') (A') (A")
                 (A") (A') (A') (A') (A') (A') (A") (A') (A') (A')
                 (A') (A') (A') (A') (A") (A") (A") (A') (A') (A')
                 (A') (A') (A') (A') (A') (A") (A') (A') (A') (A')
                 (A') (A') (A') (A') (A') (A') (A')
 The electronic state is 1-A'.
 Alpha  occ. eigenvalues --  -19.14767 -14.44577 -14.42100 -14.36827 -10.36854
 Alpha  occ. eigenvalues --  -10.35326 -10.32919 -10.26531  -1.13762  -1.06870
 Alpha  occ. eigenvalues --   -1.04118  -0.96568  -0.87844  -0.75478  -0.73983
 Alpha  occ. eigenvalues --   -0.65173  -0.65038  -0.61099  -0.57838  -0.53912
 Alpha  occ. eigenvalues --   -0.52563  -0.51251  -0.48342  -0.46145  -0.42525
 Alpha  occ. eigenvalues --   -0.34384  -0.32794  -0.32490  -0.29914
 Alpha virt. eigenvalues --   -0.00047   0.01107   0.02383   0.04271   0.04809
 Alpha virt. eigenvalues --    0.06760   0.07056   0.07347   0.09230   0.10501
 Alpha virt. eigenvalues --    0.10984   0.11570   0.11646   0.14492   0.14987
 Alpha virt. eigenvalues --    0.15247   0.15612   0.16785   0.17592   0.19479
 Alpha virt. eigenvalues --    0.19840   0.20940   0.21221   0.21792   0.22847
 Alpha virt. eigenvalues --    0.23279   0.24128   0.24358   0.27107   0.27330
 Alpha virt. eigenvalues --    0.28691   0.29015   0.29449   0.30790   0.31385
 Alpha virt. eigenvalues --    0.33935   0.34901   0.35686   0.35985   0.36906
 Alpha virt. eigenvalues --    0.37839   0.40653   0.41550   0.42592   0.46660
 Alpha virt. eigenvalues --    0.50140   0.51310   0.56402   0.58096   0.58991
 Alpha virt. eigenvalues --    0.60623   0.60736   0.64463   0.64473   0.66424
 Alpha virt. eigenvalues --    0.66568   0.71736   0.74767   0.75975   0.76720
 Alpha virt. eigenvalues --    0.78188   0.81375   0.83399   0.85325   0.86038
 Alpha virt. eigenvalues --    0.86650   0.87499   0.88247   0.89499   0.94122
 Alpha virt. eigenvalues --    0.95830   0.97299   0.99809   1.02825   1.06200
 Alpha virt. eigenvalues --    1.06596   1.09552   1.12327   1.14878   1.19528
 Alpha virt. eigenvalues --    1.20499   1.22094   1.22419   1.25125   1.25965
 Alpha virt. eigenvalues --    1.29197   1.33104   1.35477   1.39078   1.40416
 Alpha virt. eigenvalues --    1.52340   1.55716   1.57573   1.62563   1.63697
 Alpha virt. eigenvalues --    1.64240   1.70006   1.70419   1.73877   1.75665
 Alpha virt. eigenvalues --    1.77202   1.78794   1.81919   1.83917   1.87475
 Alpha virt. eigenvalues --    1.91710   1.92304   1.99642   2.00344   2.01571
 Alpha virt. eigenvalues --    2.04235   2.09664   2.11616   2.20279   2.24022
 Alpha virt. eigenvalues --    2.27276   2.27499   2.32934   2.46481   2.46755
 Alpha virt. eigenvalues --    2.49366   2.50884   2.58194   2.59606   2.63280
 Alpha virt. eigenvalues --    2.69908   2.70104   2.73367   2.78197   2.79729
 Alpha virt. eigenvalues --    2.81189   2.82189   2.86649   2.87702   2.91022
 Alpha virt. eigenvalues --    2.91811   2.93398   2.95486   3.00165   3.02174
 Alpha virt. eigenvalues --    3.04020   3.09130   3.10794   3.18723   3.25249
 Alpha virt. eigenvalues --    3.42645   3.46517   3.48272   3.54985   3.59590
 Alpha virt. eigenvalues --    3.65623   3.67653   3.72092   3.80458   3.90953
 Alpha virt. eigenvalues --    3.91342   4.01852   4.04891   4.06933   4.21055
 Alpha virt. eigenvalues --    4.49677   4.80472   4.84772   4.93292   5.13325
 Alpha virt. eigenvalues --    5.15194   5.27440   5.44496   5.88184  23.79515
 Alpha virt. eigenvalues --   23.92830  23.98378  24.23988  35.63293  35.68262
 Alpha virt. eigenvalues --   35.79703  50.11220
          Condensed to atoms (all electrons):
               1          2          3          4          5          6
     1  C    5.381092  -0.129670   0.105532   0.235336  -0.005812   0.054172
     2  C   -0.129670   5.133135   0.061336  -0.196056   0.242733   0.187883
     3  C    0.105532   0.061336   5.879164  -0.593841  -0.109605   0.271552
     4  C    0.235336  -0.196056  -0.593841   6.085724   0.060609   0.223393
     5  N   -0.005812   0.242733  -0.109605   0.060609   7.163784  -0.110035
     6  N    0.054172   0.187883   0.271552   0.223393  -0.110035   7.068209
     7  N    0.049885   0.041879   0.292461  -0.212659  -0.020196  -0.327768
     8  O    0.073437   0.426098   0.049467  -0.073633  -0.197116  -0.109205
     9  H   -0.017159  -0.013334   0.003177  -0.006298   0.338851   0.009037
    10  H    0.009816  -0.007015   0.035700   0.324252   0.009753  -0.001571
    11  H    0.393205   0.004506   0.006454  -0.000424  -0.049194  -0.000192
    12  H   -0.002045   0.002411   0.005691  -0.009963   0.001585   0.012398
    13  H   -0.001675  -0.005650  -0.037893   0.033930   0.000568   0.029093
               7          8          9         10         11         12
     1  C    0.049885   0.073437  -0.017159   0.009816   0.393205  -0.002045
     2  C    0.041879   0.426098  -0.013334  -0.007015   0.004506   0.002411
     3  C    0.292461   0.049467   0.003177   0.035700   0.006454   0.005691
     4  C   -0.212659  -0.073633  -0.006298   0.324252  -0.000424  -0.009963
     5  N   -0.020196  -0.197116   0.338851   0.009753  -0.049194   0.001585
     6  N   -0.327768  -0.109205   0.009037  -0.001571  -0.000192   0.012398
     7  N    6.861239   0.009481   0.000506  -0.005994  -0.001975   0.348612
     8  O    0.009481   8.183818   0.018998   0.000277  -0.000679  -0.000019
     9  H    0.000506   0.018998   0.358213  -0.000019  -0.004896  -0.000012
    10  H   -0.005994   0.000277  -0.000019   0.508569  -0.005733   0.001774
    11  H   -0.001975  -0.000679  -0.004896  -0.005733   0.509356   0.000053
    12  H    0.348612  -0.000019  -0.000012   0.001774   0.000053   0.401434
    13  H    0.346793  -0.000599  -0.000001  -0.000020   0.000021  -0.014871
              13
     1  C   -0.001675
     2  C   -0.005650
     3  C   -0.037893
     4  C    0.033930
     5  N    0.000568
     6  N    0.029093
     7  N    0.346793
     8  O   -0.000599
     9  H   -0.000001
    10  H   -0.000020
    11  H    0.000021
    12  H   -0.014871
    13  H    0.366478
 Mulliken charges:
               1
     1  C   -0.146112
     2  C    0.251743
     3  C    0.030804
     4  C    0.129629
     5  N   -0.325927
     6  N   -0.306967
     7  N   -0.382266
     8  O   -0.380328
     9  H    0.312937
    10  H    0.130211
    11  H    0.149499
    12  H    0.252952
    13  H    0.283824
 Sum of Mulliken charges =  -0.00000
 Mulliken charges with hydrogens summed into heavy atoms:
               1
     1  C    0.003386
     2  C    0.251743
     3  C    0.030804
     4  C    0.259841
     5  N   -0.012990
     6  N   -0.306967
     7  N    0.154510
     8  O   -0.380328
 APT charges:
               1
     1  C   -0.500719
     2  C    0.656970
     3  C    0.635912
     4  C    0.239006
     5  N   -0.313272
     6  N   -0.432072
     7  N   -0.417855
     8  O   -0.779302
[...]
      8   0.000000D+00  0.508647D+01  0.000000D+00  0.000000D+00 -0.206285D+01
      9   0.000000D+00 -0.624784D+00  0.000000D+00  0.000000D+00  0.377690D+00
     10  -0.271911D+01  0.000000D+00  0.231235D+00  0.111238D+01  0.000000D+00
     11   0.476472D+00  0.000000D+00 -0.392250D+00 -0.463938D+00  0.000000D+00
     12  -0.101922D+00  0.000000D+00  0.141053D+00  0.138593D+00  0.000000D+00
     13  -0.246690D+00  0.000000D+00 -0.375931D-01  0.693201D-01  0.000000D+00
     14   0.228415D+00  0.000000D+00 -0.397925D+00 -0.397031D+00  0.000000D+00
     15   0.000000D+00 -0.165461D+00  0.000000D+00  0.000000D+00 -0.105591D-01
     16   0.000000D+00  0.360249D+00  0.000000D+00  0.000000D+00 -0.204612D+00
                16            17            18            19            20 
      1   0.000000D+00  0.000000D+00  0.000000D+00  0.000000D+00  0.000000D+00
      2   0.999858D+00 -0.316230D+00  0.000000D+00  0.126349D+01 -0.618593D+00
      3   0.506169D-01  0.712406D+00  0.000000D+00  0.645211D+00  0.335847D+00
      4   0.000000D+00  0.000000D+00  0.344732D+00  0.000000D+00  0.000000D+00
      5  -0.196156D+00  0.465758D-01  0.000000D+00 -0.233381D+00  0.973925D-01
      6  -0.330082D-02 -0.166985D+00  0.000000D+00 -0.139371D+00 -0.922759D-01
      7   0.000000D+00  0.000000D+00 -0.123396D+00  0.000000D+00  0.000000D+00
      8   0.000000D+00  0.000000D+00 -0.318284D+01  0.000000D+00  0.000000D+00
      9   0.000000D+00  0.000000D+00  0.687306D+00  0.000000D+00  0.000000D+00
     10  -0.745719D+00  0.113038D+01  0.000000D+00 -0.236713D+00  0.127530D+01
     11   0.235231D+00 -0.494425D+00  0.000000D+00 -0.907042D-01 -0.143798D+00
     12  -0.291883D-01  0.144860D+00  0.000000D+00  0.231085D+00 -0.131378D+00
     13  -0.894242D-01  0.148362D+00  0.000000D+00 -0.840909D-02  0.116809D+00
     14   0.124163D+00 -0.558250D+00  0.000000D+00 -0.275109D+00 -0.312686D+00
     15   0.000000D+00  0.000000D+00 -0.638038D-01  0.000000D+00  0.000000D+00
     16   0.000000D+00  0.000000D+00 -0.195835D+00  0.000000D+00  0.000000D+00
                21            22            23            24            25 
      1   0.000000D+00  0.000000D+00  0.000000D+00  0.000000D+00  0.000000D+00
      2   0.000000D+00 -0.398887D+00 -0.444097D+00  0.000000D+00 -0.596152D+00
      3   0.000000D+00 -0.375958D+00 -0.224138D+00  0.000000D+00  0.551995D+00
      4   0.612133D+00  0.000000D+00  0.000000D+00 -0.238467D+00  0.000000D+00
      5   0.000000D+00  0.677406D-01  0.730640D-01  0.000000D+00  0.128703D+00
      6   0.000000D+00  0.824540D-01  0.417443D-01  0.000000D+00 -0.119757D+00
      7  -0.234033D+00  0.000000D+00  0.000000D+00  0.501014D-01  0.000000D+00
      8  -0.730715D+01  0.000000D+00  0.000000D+00  0.374510D-01  0.000000D+00
      9   0.153163D+01  0.000000D+00  0.000000D+00 -0.244955D+00  0.000000D+00
     10   0.000000D+00 -0.969445D+00  0.239959D+00  0.000000D+00  0.100062D+00
     11   0.000000D+00  0.342629D+00 -0.123816D+00  0.000000D+00 -0.302591D+00
     12   0.000000D+00  0.822877D-01  0.169062D+00  0.000000D+00  0.109321D+00
     13   0.000000D+00  0.145476D-01  0.669479D-01  0.000000D+00  0.271523D-01
     14   0.000000D+00  0.528853D+00  0.158877D+00  0.000000D+00  0.105441D+00
     15  -0.124983D+00  0.000000D+00  0.000000D+00  0.248758D+00  0.000000D+00
     16  -0.724055D+00  0.000000D+00  0.000000D+00  0.201907D+00  0.000000D+00
                26            27            28            29            30 
      1   0.000000D+00  0.000000D+00  0.000000D+00  0.000000D+00  0.000000D+00
      2   0.398716D+00  0.000000D+00 -0.209751D-01 -0.267909D-01  0.000000D+00
      3  -0.225102D+00  0.000000D+00 -0.335124D-01  0.436835D-01  0.000000D+00
      4   0.000000D+00 -0.230914D+00  0.000000D+00  0.000000D+00  0.939191D-01
      5  -0.904061D-01  0.000000D+00  0.359102D-02  0.498442D-02  0.000000D+00
      6   0.435128D-01  0.000000D+00  0.723106D-02 -0.108824D-01  0.000000D+00
      7   0.000000D+00  0.110344D+00  0.000000D+00  0.000000D+00 -0.334259D-01
      8   0.000000D+00  0.440531D+01  0.000000D+00  0.000000D+00 -0.947129D+00
      9   0.000000D+00 -0.961009D+00  0.000000D+00  0.000000D+00  0.291737D+00
     10   0.529793D+00  0.000000D+00  0.992289D-01  0.102817D+00  0.000000D+00
     11   0.966510D-02  0.000000D+00  0.480466D-01 -0.126190D-01  0.000000D+00
     12  -0.594535D-01  0.000000D+00 -0.217113D-01  0.698283D-02  0.000000D+00
     13   0.162213D-01  0.000000D+00  0.354878D-02  0.303636D-02  0.000000D+00
     14  -0.355954D+00  0.000000D+00  0.163023D-01 -0.355434D-02  0.000000D+00
     15   0.000000D+00  0.543152D-01  0.000000D+00  0.000000D+00 -0.870559D-01
     16   0.000000D+00  0.400227D+00  0.000000D+00  0.000000D+00 -0.738326D-01
                31            32            33            34            35 
      1   0.000000D+00  0.000000D+00  0.000000D+00  0.000000D+00  0.000000D+00
      2   0.706770D-02  0.567234D-01  0.000000D+00 -0.390503D-01 -0.710514D-02
      3  -0.114471D-01  0.459272D-01  0.000000D+00 -0.122172D-01  0.244295D-01
      4   0.000000D+00  0.000000D+00 -0.118313D+00  0.000000D+00  0.000000D+00
      5  -0.227038D-02 -0.120918D-01  0.000000D+00  0.884633D-02 -0.126320D-03
      6   0.203327D-02 -0.114692D-01  0.000000D+00  0.265724D-02 -0.616882D-02
      7   0.000000D+00  0.000000D+00  0.381807D-01  0.000000D+00  0.000000D+00
      8   0.000000D+00  0.000000D+00  0.912076D+00  0.000000D+00  0.000000D+00
      9   0.000000D+00  0.000000D+00 -0.223936D+00  0.000000D+00  0.000000D+00
     10  -0.161295D-02  0.732368D-01  0.000000D+00 -0.658758D-02  0.542944D-01
     11  -0.362447D-01 -0.216455D-01  0.000000D+00  0.120861D-01 -0.253423D-01
     12   0.761006D-02 -0.758310D-02  0.000000D+00 -0.116277D-01  0.121598D-01
     13   0.418846D-02  0.296072D-03  0.000000D+00 -0.130533D-02  0.358959D-02
     14   0.168948D-01 -0.757023D-01  0.000000D+00  0.172153D-01 -0.352073D-01
     15   0.000000D+00  0.000000D+00  0.787990D-01  0.000000D+00  0.000000D+00
     16   0.000000D+00  0.000000D+00  0.790291D-01  0.000000D+00  0.000000D+00
                36            37            38            39            40 
      1   0.000000D+00  0.000000D+00  0.000000D+00  0.000000D+00  0.000000D+00
      2   0.000000D+00 -0.128609D+00  0.240204D-01  0.000000D+00 -0.434326D-03
      3   0.000000D+00  0.188693D-02 -0.488631D-01  0.000000D+00 -0.274280D-01
      4  -0.494937D-01  0.000000D+00  0.000000D+00  0.529027D-01  0.000000D+00
      5   0.000000D+00  0.249545D-01 -0.206418D-02  0.000000D+00  0.357368D-03
      6   0.000000D+00 -0.155257D-02  0.124273D-01  0.000000D+00  0.607941D-02
      7   0.194019D-01  0.000000D+00  0.000000D+00 -0.285746D-01  0.000000D+00
      8   0.537778D+00  0.000000D+00  0.000000D+00 -0.115361D+01  0.000000D+00
      9  -0.133996D+00  0.000000D+00  0.000000D+00  0.335986D+00  0.000000D+00
     10   0.000000D+00  0.114402D-01 -0.855001D-01  0.000000D+00 -0.664555D-01
     11   0.000000D+00  0.719388D-01  0.123620D-01  0.000000D+00  0.416988D-01
     12   0.000000D+00 -0.885107D-02  0.180444D-01  0.000000D+00  0.215315D-02
     13   0.000000D+00  0.109350D-01 -0.188816D-02  0.000000D+00  0.302602D-02
     14   0.000000D+00  0.273397D-01  0.605462D-01  0.000000D+00  0.156968D-01
     15   0.312839D-01  0.000000D+00  0.000000D+00 -0.416991D-01  0.000000D+00
     16   0.720131D-02  0.000000D+00  0.000000D+00 -0.110001D+00  0.000000D+00
                41            42 
      1   0.000000D+00  0.000000D+00
      2  -0.129594D+00  0.000000D+00
      3  -0.797818D-02  0.000000D+00
      4   0.000000D+00 -0.621347D-01
      5   0.221250D-01  0.000000D+00
      6  -0.578216D-03  0.000000D+00
      7   0.000000D+00  0.303360D-01
      8   0.000000D+00  0.121440D+01
      9   0.000000D+00 -0.306218D+00
     10   0.191964D+00  0.000000D+00
     11  -0.351128D-01  0.000000D+00
     12   0.492093D-01  0.000000D+00
     13   0.180920D-01  0.000000D+00
     14   0.403967D-01  0.000000D+00
     15   0.000000D+00  0.403174D-01
     16   0.000000D+00  0.870937D-01

 ----------------------------------------------------------------------

 Electric dipole moment (input orientation):
 (Debye = 10**-18 statcoulomb cm , SI units = C m)
                  (au)            (Debye)         (10**-30 SI)
   Tot        0.259530D+01      0.659660D+01      0.220039D+02
   x          0.245088D+01      0.622952D+01      0.207795D+02
   y         -0.853674D+00     -0.216982D+01     -0.723775D+01
   z          0.000000D+00      0.000000D+00      0.000000D+00

 Dipole polarizability, Alpha (input orientation).
 (esu units = cm**3 , SI units = C**2 m**2 J**-1)
 Alpha(0;0):
               (au)            (10**-24 esu)      (10**-40 SI)
   iso        0.965134D+02      0.143018D+02      0.159129D+02
   aniso      0.687969D+02      0.101947D+02      0.113431D+02
   xx         0.110298D+03      0.163445D+02      0.181857D+02
   yx         0.261485D+02      0.387481D+01      0.431131D+01
   yy         0.117033D+03      0.173425D+02      0.192961D+02
   zx         0.000000D+00      0.000000D+00      0.000000D+00
   zy         0.000000D+00      0.000000D+00      0.000000D+00
   zz         0.622091D+02      0.921844D+01      0.102569D+02

 ----------------------------------------------------------------------

 Dipole orientation:
     6         -1.02003345         -2.92849874          0.94697101
     6          0.00406046          0.01165753         -2.44362769
     6          0.42520239          1.22074884          1.75396396
     6         -0.41258564         -1.18452636          2.70191724
     7         -0.82439591         -2.36682668         -1.53572217
     7          0.61491403          1.76540776         -0.65114773
     7          1.06261390          3.05074648          3.42056039
     8          0.11565955          0.33205660         -4.70637792
     1         -1.26753061         -3.63905887         -2.88490535
     1         -0.55014189         -1.57944804          4.69869609
     1         -1.67474394         -4.80816144          1.41996953
     1          0.96960960          2.78373272          5.29576199
     1          1.64574562          4.72490776          2.73030855

 Electric dipole moment (dipole orientation):
 (Debye = 10**-18 statcoulomb cm , SI units = C m)
                  (au)            (Debye)         (10**-30 SI)
   Tot        0.259530D+01      0.659660D+01      0.220039D+02
   x          0.000000D+00      0.000000D+00      0.000000D+00
   y          0.000000D+00      0.000000D+00      0.000000D+00
   z          0.259530D+01      0.659660D+01      0.220039D+02

 Dipole polarizability, Alpha (dipole orientation).
 (esu units = cm**3 , SI units = C**2 m**2 J**-1)
 Alpha(0;0):
               (au)            (10**-24 esu)      (10**-40 SI)
   iso        0.965134D+02      0.143018D+02      0.159129D+02
   aniso      0.687969D+02      0.101947D+02      0.113431D+02
   xx         0.698196D+02      0.103462D+02      0.115117D+02
   yx         0.218495D+02      0.323776D+01      0.360249D+01
   yy         0.124939D+03      0.185140D+02      0.205996D+02
   zx         0.605175D+01      0.896778D+00      0.997800D+00
   zy         0.173745D+02      0.257463D+01      0.286467D+01
   zz         0.947821D+02      0.140453D+02      0.156275D+02

 ----------------------------------------------------------------------
 1\1\GINC-BAKU2\Freq\RCAM-B3LYP TD-FC\6-311+G(d,p)\C4H5N3O1\ROOT\22-Nov
 -2022\0\\#p freq td=(nstates=10,root=5) cam-b3lyp/6-311+G(d,p) symm=lo
 ose\\Cytosine TDDFT excited state 5\\0,1\C,-0.066548,-1.714527,0.\C,-1
 .219007,0.431513,0.\C,1.101517,0.340693,0.\C,1.1319,-1.097127,0.\N,-1.
 203699,-0.985159,0.\N,0.,1.047554,0.\N,2.27167,1.018994,0.\O,-2.290717
 ,0.994921,0.\H,-2.112424,-1.423553,0.\H,2.05696,-1.653675,0.\H,-0.1766
 34,-2.791533,0.\H,3.15955,0.551294,0.\H,2.23531,2.025069,0.\\Version=E
 S64L-G16RevB.01\State=1-A'\HF=-394.8738389\RMSD=7.441e-09\RMSF=2.598e-
 02\ZeroPoint=0.0945714\Thermal=0.1009767\Dipole=2.4508828,-0.8536737,0
 .\DipoleDeriv=0.7034184,-1.2609497,0.,-0.6809291,-1.5105718,0.,0.,0.,-
 0.6950036,1.2119837,-1.8548533,0.,-1.8848105,0.3708826,0.,0.,0.,0.3880
 439,0.1454188,-1.5826298,0.,-1.6293075,1.1869517,0.,0.,0.,0.5753668,-0
 .017672,1.7859227,0.,0.9159378,0.8587506,0.,0.,0.,-0.1240597,-1.111581
 8,0.0207591,0.,1.5223754,0.2685462,0.,0.,0.,-0.0967812,-0.1891423,2.40
 6962,0.,0.4816626,-0.6026668,0.,0.,0.,-0.5044078,-0.3966154,-0.5860808
 ,0.,0.4144473,-0.4436104,0.,0.,0.,-0.4133404,-1.1464151,1.0271738,0.,0
 .6184283,-0.7714402,0.,0.,0.,-0.4200514,0.2743126,0.0226239,0.,0.10587
 82,0.1889053,0.,0.,0.,0.3090346,-0.0233993,0.0539466,0.,0.07377,0.0819
 836,0.,0.,0.,0.189752,0.0479242,-0.0343214,0.,0.0209433,-0.0010183,0.,
 0.,0.,0.2750831,0.3189451,-0.004159,0.,-0.0479632,0.1089506,0.,0.,0.,0
 .2679014,0.182823,0.0056058,0.,0.0895674,0.2643368,0.,0.,0.,0.2484624\
 Polar=110.2983113,26.1484991,117.0328679,0.,0.,62.2090941\PG=CS [SG(C4
 H5N3O1)]\NImag=2\\0.75595633,0.06047143,0.74495798,0.,0.,-0.00080701,0
 .03768044,0.00083295,0.,0.82794806,-0.04473461,-0.09443281,0.,-0.25520
 247,0.50097396,0.,0.,-0.00684318,0.,0.,0.21525844,0.03457573,-0.028724
 82,0.,-0.05704602,-0.04770085,0.,0.69200072,-0.06043335,-0.06799375,0.
 ,-0.04534215,0.07228179,0.,-0.12352117,0.65507605,0.,0.,0.07231856,0.,
 0.,-0.00611492,0.,0.,0.12081273,-0.34724012,-0.13041099,0.,0.02404592,
 0.08998726,0.,-0.14062304,0.05091302,0.,0.79995259,-0.10839635,-0.1441
 2424,0.,0.02296779,0.03893574,0.,0.03917417,-0.20167909,0.,-0.04122453
 ,0.54892884,0.,0.,-0.01597187,0.,0.,-0.00470542,0.,0.,-0.08946359,0.,0
 .,0.06973628,-0.32465995,0.12516247,0.,-0.16929811,0.00369848,0.,-0.02
 714217,0.03172889,0.,-0.05138585,0.00792862,0.,0.92609474,0.13354096,-
 0.16143606,0.,0.07553001,-0.12695121,0.,0.03351818,-0.01010418,0.,-0.0
 4854578,-0.01212344,0.,-0.00589838,0.59123076,0.,0.,-0.00605791,0.,0.,
 -0.05168941,0.,0.,-0.06835627,0.,0.,0.01271599,0.,0.,0.05845705,-0.008
 10870,0.03269106,0.,-0.13928353,0.03117800,0.,-0.27925224,0.24705599,0
 .,-0.04433608,-0.02302904,0.,0.02086358,-0.11976010,0.,0.63768421,0.02
 084984,0.03050399,0.,-0.01532716,-0.14114342,0.,0.15460114,-0.20846968
 ,0.,0.01887758,-0.04656157,0.,-0.06097008,-0.05210002,0.,-0.12365511,0
 .36267124,0.,0.,-0.06336712,0.,0.,-0.07987360,0.,0.,-0.10432981,0.,0.,
 0.06357507,0.,0.,0.08585118,0.,0.,0.18244000,-0.02730745,-0.03521800,0
 .,-0.02439334,-0.02893046,0.,-0.23300728,-0.09828557,0.,0.03373860,0.0
 0164053,0.,0.00221143,0.02758197,0.,-0.07159584,0.00981024,0.,0.788940
 51,-0.00057901,-0.01182796,0.,0.00558426,-0.02684040,0.,-0.05652540,-0
 .19574956,0.,-0.04404600,-0.03040706,0.,-0.00333372,0.01103822,0.,-0.0
 0600936,0.03232360,0.,-0.07088025,0.83968659,0.,0.,-0.00517971,0.,0.,0
 .00475685,0.,0.,-0.00098747,0.,0.,0.00928678,0.,0.,0.00396606,0.,0.,-0
 .01164439,0.,0.,0.00918348,-0.02105598,0.01008119,0.,-0.50144309,0.266
 10939,0.,0.00109098,0.02361893,0.,-0.00078371,-0.00544655,0.,0.0073967
 8,0.01939063,0.,-0.11387870,-0.01059435,0.,0.00170101,-0.00480958,0.,0
 .63204092,0.02084062,0.01184005,0.,0.23885091,-0.22348279,0.,0.0131656
 6,-0.03489829,0.,-0.02318948,-0.00608731,0.,0.05982729,-0.06821301,0.,
 -0.02466341,0.03661501,0.,0.00643082,0.01192616,0.,-0.29907783,0.26865
 822,0.,0.,0.03389091,0.,0.,-0.07568026,0.,0.,0.06992563,0.,0.,-0.02546
 826,0.,0.,-0.02233943,0.,0.,-0.06841953,0.,0.,-0.00086538,0.,0.,0.0847
 2455,-0.01478478,-0.01181539,0.,0.00805025,-0.00547874,0.,0.00593479,-
 0.00394759,0.,-0.00317225,0.00438064,0.,-0.38493715,-0.15201957,0.,-0.
 00246378,0.00399761,0.,-0.00131492,0.00039938,0.,-0.00325026,0.0027166
 6,0.,0.39536275,0.02105902,0.01781406,0.,-0.03271195,-0.00709240,0.,0.
 00470838,-0.00307336,0.,0.00194016,-0.00336866,0.,-0.15411266,-0.14910
 892,0.,-0.00604297,-0.00700467,0.,0.00020855,0.00087613,0.,0.00157063,
 0.00501315,0.,0.16214408,0.14529250,0.,0.,-0.00856787,0.,0.,-0.0040404
 0,0.,0.,-0.01219536,0.,0.,0.00867726,0.,0.,-0.00295662,0.,0.,0.0263740
 2,0.,0.,-0.00105501,0.,0.,-0.01372848,0.,0.,0.01274481,-0.01664420,0.0
 1847274,0.,0.00004992,-0.00128512,0.,0.00402802,-0.00335716,0.,-0.2737
 1113,0.12766323,0.,-0.00286331,-0.00399047,0.,0.00126045,-0.00145672,0
 .,0.00045758,-0.00025672,0.,-0.00015597,0.00053246,0.,-0.00052397,0.00
 100648,0.,0.28682864,-0.00981168,0.01569989,0.,0.00085807,0.00150174,0
 .,0.02503881,-0.01087658,0.,0.12608693,-0.13663815,0.,-0.00419789,-0.0
 0317433,0.,-0.00357374,-0.00639072,0.,0.00396190,0.00399052,0.,-0.0001
 2932,0.00014883,0.,-0.00054729,0.00049628,0.,-0.13765489,0.13582568,0.
 ,0.,0.00624941,0.,0.,0.00409821,0.,0.,0.00837003,0.,0.,-0.02472329,0.,
 0.,-0.00322719,0.,0.,-0.01432749,0.,0.,-0.00222147,0.,0.,0.01011682,0.
 ,0.,-0.00353147,0.,0.,0.01768112,-0.06688423,-0.03819987,0.,-0.0046466
 6,-0.00465274,0.,-0.00507200,-0.00018011,0.,0.00523348,-0.02722893,0.,
 0.00277051,0.03854407,0.,0.00175679,0.00089094,0.,-0.00054137,-0.00252
 484,0.,-0.00126289,0.00306450,0.,0.00119150,0.00017151,0.,0.00069163,0
 .00050283,0.,0.06713275,-0.02873503,-0.33726197,0.,0.00387260,0.007320
 07,0.,-0.00134096,0.00159792,0.,-0.00168910,-0.01014891,0.,-0.00102609
 ,-0.01953966,0.,-0.00311054,-0.00064295,0.,0.00161893,-0.00037296,0.,0
 .00041182,-0.00229482,0.,0.00021853,0.00033964,0.,-0.00016957,0.000421
 70,0.,0.02987949,0.36043488,0.,0.,-0.00410119,0.,0.,-0.00038332,0.,0.,
 0.00745415,0.,0.,-0.00018108,0.,0.,-0.00796967,0.,0.,-0.01290062,0.,0.
 ,0.00169845,0.,0.,0.00865063,0.,0.,-0.00061954,0.,0.,-0.00058989,0.,0.
 ,0.00824914,-0.00348106,-0.00078775,0.,0.00181761,-0.00012568,0.,-0.00
 773101,0.02120834,0.,0.00412256,0.00026118,0.,0.00107647,-0.00105361,0
 .,-0.00770727,-0.00125817,0.,-0.39320875,0.16622763,0.,-0.00148464,0.0
 0081582,0.,-0.00018713,-0.00029146,0.,0.00047040,-0.00053104,0.,0.0000
 6519,0.00011869,0.,0.39859624,-0.00193865,-0.00377519,0.,-0.00469821,-
 0.00133057,0.,-0.01511439,0.01691929,0.,0.00225571,0.00388515,0.,0.000
 33352,0.00284963,0.,0.00159304,-0.00179880,0.,0.16899946,-0.16764426,0
 .,0.00123424,-0.00046909,0.,0.00005996,0.00012298,0.,0.00013985,-0.001
 14114,0.,-0.00001922,0.00015194,0.,-0.18016657,0.15416189,0.,0.,-0.008
 86128,0.,0.,0.00237760,0.,0.,-0.01826069,0.,0.,0.00551819,0.,0.,0.0125
 8470,0.,0.,0.02560238,0.,0.,-0.00604751,0.,0.,-0.01517596,0.,0.,0.0020
 9052,0.,0.,-0.00056342,0.,0.,-0.00277073,0.,0.,0.00563979,0.00195396,-
 0.00255503,0.,-0.00348146,-0.00286245,0.,0.01224352,-0.03945807,0.,-0.
 00584097,0.00130925,0.,-0.00012698,0.00316211,0.,0.00506112,0.00423423
 ,0.,-0.07568019,0.01675362,0.,0.00108556,0.00068598,0.,0.00009497,0.00
 035023,0.,0.00011195,-0.00000269,0.,-0.00043469,-0.00004879,0.,0.00765
 138,0.02732126,0.,0.05736183,-0.00213318,0.00003602,0.,0.00478534,0.00
 026029,0.,0.00272124,-0.01303057,0.,-0.00095476,-0.00061131,0.,0.00085
 956,-0.00236777,0.,-0.00267383,0.00199798,0.,0.01306187,-0.46699901,0.
 ,-0.00235919,0.00124388,0.,-0.00010827,-0.00030674,0.,0.00035589,0.000
 13627,0.,-0.00024764,-0.00000488,0.,-0.00441738,-0.00193183,0.,-0.0088
 8965,0.48157767,0.,0.,0.00729826,0.,0.,0.00283940,0.,0.,0.02082701,0.,
 0.,-0.00899605,0.,0.,-0.01097849,0.,0.,-0.02898009,0.,0.,-0.00089067,0
 .,0.,0.01436878,0.,0.,-0.00319187,0.,0.,0.00266862,0.,0.,0.00346369,0.
 ,0.,-0.00213359,0.,0.,0.00370500\\0.01485905,0.06015884,0.,0.00619539,
 0.02194820,0.,-0.02868021,0.10221522,0.,-0.03877888,-0.05587161,0.,0.0
 1624491,-0.03496064,0.,0.03552522,-0.05083282,0.,-0.00324450,-0.022499
 14,0.,0.00280969,-0.01109815,0.,-0.00021908,-0.00152051,0.,-0.00075802
 ,-0.00089764,0.,0.00000715,-0.00266461,0.,-0.00440564,0.00298921,0.,0.
 00044490,-0.00696636,0.\\\@


 YOU CAN WIPE THE SLATE CLEAN, BUT YOU'LL STILL
 HAVE TO EAT A LITTLE CHALK DUST.
 Job cpu time:       0 days  1 hours 25 minutes 33.7 seconds.
 Elapsed time:       0 days  0 hours  1 minutes 43.5 seconds.
 File lengths (MBytes):  RWF=    304 Int=      0 D2E=      0 Chk=     18 Scr=      1
 Normal termination of Gaussian 16 at Tue Nov 22 14:24:58 2022.
