Guanine                                                                 
Freq      RCAM-B3LYP                                                  6-311+G(d,p)        
Number of atoms                            I               16
Info1-9                                    I   N=           9
          25          25           0           0           0         100
           6          18        4002
Full Title                                 C   N=           1
Guanine     
Route                                      C   N=           4
#p freq cam-b3lyp/6-311+G(d,p) symm=loose       
Charge                                     I                0
Multiplicity                               I                1
Number of electrons                        I               78
Number of alpha electrons                  I               39
Number of beta electrons                   I               39
Number of basis functions                  I              272
Number of independent functions            I              272
Number of point charges in /Mol/           I                0
Number of translation vectors              I                0
Atomic numbers                             I   N=          16
           7           6           7           6           6           8
           7           6           7           7           6           1
           1           1           1           1
Nuclear charges                            R   N=          16
  7.00000000E+00  6.00000000E+00  7.00000000E+00  6.00000000E+00  6.00000000E+00
  8.00000000E+00  7.00000000E+00  6.00000000E+00  7.00000000E+00  7.00000000E+00
  6.00000000E+00  1.00000000E+00  1.00000000E+00  1.00000000E+00  1.00000000E+00
  1.00000000E+00
Current cartesian coordinates              R   N=          48
  4.09040105E+00  1.37831742E+00  0.00000000E+00  3.44623479E+00  3.90457128E+00
  0.00000000E+00  1.02221126E+00  4.25917253E+00  2.46519033E-32 -1.27631348E-16
  1.86633320E+00  1.04202225E-32 -2.58622242E+00  1.05440273E+00  4.93038066E-32
 -4.53612885E+00  2.24145105E+00  9.86076132E-32 -2.69126642E+00 -1.64345912E+00
  4.93038066E-32 -6.74030895E-01 -3.25600194E+00 -1.23259516E-32 -1.18585546E+00
 -5.76965898E+00 -4.93038066E-32  1.66688240E+00 -2.49594825E+00  0.00000000E+00
  1.88246972E+00  5.30617665E-02  0.00000000E+00  4.86263543E+00  5.37182846E+00
  0.00000000E+00 -4.47402454E+00 -2.32954133E+00 -9.86076132E-32 -2.95133582E+00
 -6.46024253E+00 -4.93038066E-32  2.87244728E-01 -6.96805137E+00 -3.69778549E-32
  5.83719402E+00  6.21230911E-01  0.00000000E+00
Number of symbols in /Mol/                 I                0
Force Field                                I                0
Atom Types                                 C   N=          16
                                                            
                                                            
                                                            
            
Int Atom Types                             I   N=          16
           0           0           0           0           0           0
           0           0           0           0           0           0
           0           0           0           0
MM charges                                 R   N=          16
  0.00000000E+00  0.00000000E+00  0.00000000E+00  0.00000000E+00  0.00000000E+00
  0.00000000E+00  0.00000000E+00  0.00000000E+00  0.00000000E+00  0.00000000E+00
  0.00000000E+00  0.00000000E+00  0.00000000E+00  0.00000000E+00  0.00000000E+00
  0.00000000E+00
Integer atomic weights                     I   N=          16
          14          12          14          12          12          16
          14          12          14          14          12           1
           1           1           1           1
Real atomic weights                        R   N=          16
  1.40030740E+01  1.20000000E+01  1.40030740E+01  1.20000000E+01  1.20000000E+01
  1.59949146E+01  1.40030740E+01  1.20000000E+01  1.40030740E+01  1.40030740E+01
  1.20000000E+01  1.00782504E+00  1.00782504E+00  1.00782504E+00  1.00782504E+00
  1.00782504E+00
Atom fragment info                         I   N=          16
           0           0           0           0           0           0
           0           0           0           0           0           0
           0           0           0           0
Atom residue num                           I   N=          16
           0           0           0           0           0           0
           0           0           0           0           0           0
           0           0           0           0
Nuclear spins                              I   N=          16
           2           0           2           0           0           0
           2           0           2           2           0           1
           1           1           1           1
Nuclear ZEff                               R   N=          16
 -4.55000000E+00 -3.60000000E+00 -4.55000000E+00 -3.60000000E+00 -3.60000000E+00
 -5.60000000E+00 -4.55000000E+00 -3.60000000E+00 -4.55000000E+00 -4.55000000E+00
 -3.60000000E+00 -1.00000000E+00 -1.00000000E+00 -1.00000000E+00 -1.00000000E+00
 -1.00000000E+00
Nuclear ZNuc                               R   N=          16
  7.00000000E+00  6.00000000E+00  7.00000000E+00  6.00000000E+00  6.00000000E+00
  8.00000000E+00  7.00000000E+00  6.00000000E+00  7.00000000E+00  7.00000000E+00
  6.00000000E+00  1.00000000E+00  1.00000000E+00  1.00000000E+00  1.00000000E+00
  1.00000000E+00
Nuclear QMom                               R   N=          16
  2.04400000E+00  0.00000000E+00  2.04400000E+00  0.00000000E+00  0.00000000E+00
  0.00000000E+00  2.04400000E+00  0.00000000E+00  2.04400000E+00  2.04400000E+00
  0.00000000E+00  0.00000000E+00  0.00000000E+00  0.00000000E+00  0.00000000E+00
  0.00000000E+00
Nuclear GFac                               R   N=          16
  4.03761000E-01  0.00000000E+00  4.03761000E-01  0.00000000E+00  0.00000000E+00
  0.00000000E+00  4.03761000E-01  0.00000000E+00  4.03761000E-01  4.03761000E-01
  0.00000000E+00  2.79284600E+00  2.79284600E+00  2.79284600E+00  2.79284600E+00
  2.79284600E+00
MicOpt                                     I   N=          16
          -1          -1          -1          -1          -1          -1
          -1          -1          -1          -1          -1          -1
          -1          -1          -1          -1
Number of residues                         I                0
Number of secondary structures             I                0
SymInf integers                            I   N=          26
           1           2           1           1           1           1
           1          -1           0           0           0           0
           0           0           0           0           0           0
           0           0           0           0           0           0
           0           0
RotTr to input orientation                 R   N=          12
 -1.00000000E+00 -7.78872431E-08 -1.22464680E-16 -7.78872431E-08  1.00000000E+00
  0.00000000E+00  1.22464680E-16  9.53843630E-24 -1.00000000E+00  1.45363548E-07
  1.55146551E-16  0.00000000E+00
Number of contracted shells                I               86
Number of primitive shells                 I              173
Pure/Cartesian d shells                    I                0
Pure/Cartesian f shells                    I                0
Highest angular momentum                   I                2
Largest degree of contraction              I                6
Shell types                                I   N=          86
           0          -1          -1          -1          -1          -2
           0          -1          -1          -1          -1          -2
           0          -1          -1          -1          -1          -2
           0          -1          -1          -1          -1          -2
           0          -1          -1          -1          -1          -2
           0          -1          -1          -1          -1          -2
           0          -1          -1          -1          -1          -2
           0          -1          -1          -1          -1          -2
           0          -1          -1          -1          -1          -2
           0          -1          -1          -1          -1          -2
           0          -1          -1          -1          -1          -2
           0           0           0           1           0           0
           0           1           0           0           0           1
           0           0           0           1           0           0
           0           1
Number of primitives per shell             I   N=          86
           6           3           1           1           1           1
           6           3           1           1           1           1
           6           3           1           1           1           1
           6           3           1           1           1           1
           6           3           1           1           1           1
           6           3           1           1           1           1
           6           3           1           1           1           1
           6           3           1           1           1           1
           6           3           1           1           1           1
           6           3           1           1           1           1
           6           3           1           1           1           1
           3           1           1           1           3           1
           1           1           3           1           1           1
           3           1           1           1           3           1
           1           1
Shell to atom map                          I   N=          86
           1           1           1           1           1           1
           2           2           2           2           2           2
           3           3           3           3           3           3
           4           4           4           4           4           4
           5           5           5           5           5           5
           6           6           6           6           6           6
           7           7           7           7           7           7
           8           8           8           8           8           8
           9           9           9           9           9           9
          10          10          10          10          10          10
          11          11          11          11          11          11
          12          12          12          12          13          13
          13          13          14          14          14          14
          15          15          15          15          16          16
          16          16
Primitive exponents                        R   N=         173
  6.29348000E+03  9.49044000E+02  2.18776000E+02  6.36916000E+01  1.88282000E+01
  2.72023000E+00  3.06331000E+01  7.02614000E+00  2.11205000E+00  6.84009000E-01
  2.00878000E-01  6.39000000E-02  9.13000000E-01  4.56324000E+03  6.82024000E+02
  1.54973000E+02  4.44553000E+01  1.30290000E+01  1.82773000E+00  2.09642000E+01
  4.80331000E+00  1.45933000E+00  4.83456000E-01  1.45585000E-01  4.38000000E-02
  6.26000000E-01  6.29348000E+03  9.49044000E+02  2.18776000E+02  6.36916000E+01
  1.88282000E+01  2.72023000E+00  3.06331000E+01  7.02614000E+00  2.11205000E+00
  6.84009000E-01  2.00878000E-01  6.39000000E-02  9.13000000E-01  4.56324000E+03
  6.82024000E+02  1.54973000E+02  4.44553000E+01  1.30290000E+01  1.82773000E+00
  2.09642000E+01  4.80331000E+00  1.45933000E+00  4.83456000E-01  1.45585000E-01
  4.38000000E-02  6.26000000E-01  4.56324000E+03  6.82024000E+02  1.54973000E+02
  4.44553000E+01  1.30290000E+01  1.82773000E+00  2.09642000E+01  4.80331000E+00
  1.45933000E+00  4.83456000E-01  1.45585000E-01  4.38000000E-02  6.26000000E-01
  8.58850000E+03  1.29723000E+03  2.99296000E+02  8.73771000E+01  2.56789000E+01
  3.74004000E+00  4.21175000E+01  9.62837000E+00  2.85332000E+00  9.05661000E-01
  2.55611000E-01  8.45000000E-02  1.29200000E+00  6.29348000E+03  9.49044000E+02
  2.18776000E+02  6.36916000E+01  1.88282000E+01  2.72023000E+00  3.06331000E+01
  7.02614000E+00  2.11205000E+00  6.84009000E-01  2.00878000E-01  6.39000000E-02
  9.13000000E-01  4.56324000E+03  6.82024000E+02  1.54973000E+02  4.44553000E+01
  1.30290000E+01  1.82773000E+00  2.09642000E+01  4.80331000E+00  1.45933000E+00
  4.83456000E-01  1.45585000E-01  4.38000000E-02  6.26000000E-01  6.29348000E+03
  9.49044000E+02  2.18776000E+02  6.36916000E+01  1.88282000E+01  2.72023000E+00
  3.06331000E+01  7.02614000E+00  2.11205000E+00  6.84009000E-01  2.00878000E-01
  6.39000000E-02  9.13000000E-01  6.29348000E+03  9.49044000E+02  2.18776000E+02
  6.36916000E+01  1.88282000E+01  2.72023000E+00  3.06331000E+01  7.02614000E+00
  2.11205000E+00  6.84009000E-01  2.00878000E-01  6.39000000E-02  9.13000000E-01
  4.56324000E+03  6.82024000E+02  1.54973000E+02  4.44553000E+01  1.30290000E+01
  1.82773000E+00  2.09642000E+01  4.80331000E+00  1.45933000E+00  4.83456000E-01
  1.45585000E-01  4.38000000E-02  6.26000000E-01  3.38650000E+01  5.09479000E+00
  1.15879000E+00  3.25840000E-01  1.02741000E-01  7.50000000E-01  3.38650000E+01
  5.09479000E+00  1.15879000E+00  3.25840000E-01  1.02741000E-01  7.50000000E-01
  3.38650000E+01  5.09479000E+00  1.15879000E+00  3.25840000E-01  1.02741000E-01
  7.50000000E-01  3.38650000E+01  5.09479000E+00  1.15879000E+00  3.25840000E-01
  1.02741000E-01  7.50000000E-01  3.38650000E+01  5.09479000E+00  1.15879000E+00
  3.25840000E-01  1.02741000E-01  7.50000000E-01
Contraction coefficients                   R   N=         173
  1.96978815E-03  1.49612859E-02  7.35005308E-02  2.48936766E-01  6.02459433E-01
  2.56201759E-01  1.11906080E-01  9.21666655E-01 -2.56919183E-03  1.00000000E+00
  1.00000000E+00  1.00000000E+00  1.00000000E+00  1.96665025E-03  1.52306019E-02
  7.61269097E-02  2.60801033E-01  6.16462078E-01  2.21006028E-01  1.14660081E-01
  9.19999648E-01 -3.03068213E-03  1.00000000E+00  1.00000000E+00  1.00000000E+00
  1.00000000E+00  1.96978815E-03  1.49612859E-02  7.35005308E-02  2.48936766E-01
  6.02459433E-01  2.56201759E-01  1.11906080E-01  9.21666655E-01 -2.56919183E-03
  1.00000000E+00  1.00000000E+00  1.00000000E+00  1.00000000E+00  1.96665025E-03
  1.52306019E-02  7.61269097E-02  2.60801033E-01  6.16462078E-01  2.21006028E-01
  1.14660081E-01  9.19999648E-01 -3.03068213E-03  1.00000000E+00  1.00000000E+00
  1.00000000E+00  1.00000000E+00  1.96665025E-03  1.52306019E-02  7.61269097E-02
  2.60801033E-01  6.16462078E-01  2.21006028E-01  1.14660081E-01  9.19999648E-01
 -3.03068213E-03  1.00000000E+00  1.00000000E+00  1.00000000E+00  1.00000000E+00
  1.89515008E-03  1.43859006E-02  7.07320031E-02  2.40001011E-01  5.94797026E-01
  2.80802012E-01  1.13889012E-01  9.20811101E-01 -3.27447036E-03  1.00000000E+00
  1.00000000E+00  1.00000000E+00  1.00000000E+00  1.96978815E-03  1.49612859E-02
  7.35005308E-02  2.48936766E-01  6.02459433E-01  2.56201759E-01  1.11906080E-01
  9.21666655E-01 -2.56919183E-03  1.00000000E+00  1.00000000E+00  1.00000000E+00
  1.00000000E+00  1.96665025E-03  1.52306019E-02  7.61269097E-02  2.60801033E-01
  6.16462078E-01  2.21006028E-01  1.14660081E-01  9.19999648E-01 -3.03068213E-03
  1.00000000E+00  1.00000000E+00  1.00000000E+00  1.00000000E+00  1.96978815E-03
  1.49612859E-02  7.35005308E-02  2.48936766E-01  6.02459433E-01  2.56201759E-01
  1.11906080E-01  9.21666655E-01 -2.56919183E-03  1.00000000E+00  1.00000000E+00
  1.00000000E+00  1.00000000E+00  1.96978815E-03  1.49612859E-02  7.35005308E-02
  2.48936766E-01  6.02459433E-01  2.56201759E-01  1.11906080E-01  9.21666655E-01
 -2.56919183E-03  1.00000000E+00  1.00000000E+00  1.00000000E+00  1.00000000E+00
  1.96665025E-03  1.52306019E-02  7.61269097E-02  2.60801033E-01  6.16462078E-01
  2.21006028E-01  1.14660081E-01  9.19999648E-01 -3.03068213E-03  1.00000000E+00
  1.00000000E+00  1.00000000E+00  1.00000000E+00  2.54938145E-02  1.90373109E-01
  8.52161486E-01  1.00000000E+00  1.00000000E+00  1.00000000E+00  2.54938145E-02
  1.90373109E-01  8.52161486E-01  1.00000000E+00  1.00000000E+00  1.00000000E+00
  2.54938145E-02  1.90373109E-01  8.52161486E-01  1.00000000E+00  1.00000000E+00
  1.00000000E+00  2.54938145E-02  1.90373109E-01  8.52161486E-01  1.00000000E+00
  1.00000000E+00  1.00000000E+00  2.54938145E-02  1.90373109E-01  8.52161486E-01
  1.00000000E+00  1.00000000E+00  1.00000000E+00
P(S=P) Contraction coefficients            R   N=         173
  0.00000000E+00  0.00000000E+00  0.00000000E+00  0.00000000E+00  0.00000000E+00
  0.00000000E+00  3.83119186E-02  2.37403116E-01  8.17592398E-01  1.00000000E+00
  1.00000000E+00  1.00000000E+00  0.00000000E+00  0.00000000E+00  0.00000000E+00
  0.00000000E+00  0.00000000E+00  0.00000000E+00  0.00000000E+00  4.02486927E-02
  2.37593957E-01  8.15853851E-01  1.00000000E+00  1.00000000E+00  1.00000000E+00
  0.00000000E+00  0.00000000E+00  0.00000000E+00  0.00000000E+00  0.00000000E+00
  0.00000000E+00  0.00000000E+00  3.83119186E-02  2.37403116E-01  8.17592398E-01
  1.00000000E+00  1.00000000E+00  1.00000000E+00  0.00000000E+00  0.00000000E+00
  0.00000000E+00  0.00000000E+00  0.00000000E+00  0.00000000E+00  0.00000000E+00
  4.02486927E-02  2.37593957E-01  8.15853851E-01  1.00000000E+00  1.00000000E+00
  1.00000000E+00  0.00000000E+00  0.00000000E+00  0.00000000E+00  0.00000000E+00
  0.00000000E+00  0.00000000E+00  0.00000000E+00  4.02486927E-02  2.37593957E-01
  8.15853851E-01  1.00000000E+00  1.00000000E+00  1.00000000E+00  0.00000000E+00
  0.00000000E+00  0.00000000E+00  0.00000000E+00  0.00000000E+00  0.00000000E+00
  0.00000000E+00  3.65113974E-02  2.37152983E-01  8.19701941E-01  1.00000000E+00
  1.00000000E+00  1.00000000E+00  0.00000000E+00  0.00000000E+00  0.00000000E+00
  0.00000000E+00  0.00000000E+00  0.00000000E+00  0.00000000E+00  3.83119186E-02
  2.37403116E-01  8.17592398E-01  1.00000000E+00  1.00000000E+00  1.00000000E+00
  0.00000000E+00  0.00000000E+00  0.00000000E+00  0.00000000E+00  0.00000000E+00
  0.00000000E+00  0.00000000E+00  4.02486927E-02  2.37593957E-01  8.15853851E-01
  1.00000000E+00  1.00000000E+00  1.00000000E+00  0.00000000E+00  0.00000000E+00
  0.00000000E+00  0.00000000E+00  0.00000000E+00  0.00000000E+00  0.00000000E+00
  3.83119186E-02  2.37403116E-01  8.17592398E-01  1.00000000E+00  1.00000000E+00
  1.00000000E+00  0.00000000E+00  0.00000000E+00  0.00000000E+00  0.00000000E+00
  0.00000000E+00  0.00000000E+00  0.00000000E+00  3.83119186E-02  2.37403116E-01
  8.17592398E-01  1.00000000E+00  1.00000000E+00  1.00000000E+00  0.00000000E+00
  0.00000000E+00  0.00000000E+00  0.00000000E+00  0.00000000E+00  0.00000000E+00
  0.00000000E+00  4.02486927E-02  2.37593957E-01  8.15853851E-01  1.00000000E+00
  1.00000000E+00  1.00000000E+00  0.00000000E+00  0.00000000E+00  0.00000000E+00
  0.00000000E+00  0.00000000E+00  0.00000000E+00  0.00000000E+00  0.00000000E+00
  0.00000000E+00  0.00000000E+00  0.00000000E+00  0.00000000E+00  0.00000000E+00
  0.00000000E+00  0.00000000E+00  0.00000000E+00  0.00000000E+00  0.00000000E+00
  0.00000000E+00  0.00000000E+00  0.00000000E+00  0.00000000E+00  0.00000000E+00
  0.00000000E+00  0.00000000E+00  0.00000000E+00  0.00000000E+00  0.00000000E+00
  0.00000000E+00  0.00000000E+00  0.00000000E+00
Coordinates of each shell                  R   N=         258
  4.09040105E+00  1.37831742E+00  3.84775241E-33  4.09040105E+00  1.37831742E+00
  3.84775241E-33  4.09040105E+00  1.37831742E+00  3.84775241E-33  4.09040105E+00
  1.37831742E+00  3.84775241E-33  4.09040105E+00  1.37831742E+00  3.84775241E-33
  4.09040105E+00  1.37831742E+00  3.84775241E-33  3.44623479E+00  3.90457128E+00
  1.09001187E-32  3.44623479E+00  3.90457128E+00  1.09001187E-32  3.44623479E+00
  3.90457128E+00  1.09001187E-32  3.44623479E+00  3.90457128E+00  1.09001187E-32
  3.44623479E+00  3.90457128E+00  1.09001187E-32  3.44623479E+00  3.90457128E+00
  1.09001187E-32  1.02221126E+00  4.25917253E+00  1.18900343E-32  1.02221126E+00
  4.25917253E+00  1.18900343E-32  1.02221126E+00  4.25917253E+00  1.18900343E-32
  1.02221126E+00  4.25917253E+00  1.18900343E-32  1.02221126E+00  4.25917253E+00
  1.18900343E-32  1.02221126E+00  4.25917253E+00  1.18900343E-32 -8.50875807E-17
  1.86633320E+00  5.21011196E-33 -8.50875807E-17  1.86633320E+00  5.21011196E-33
 -8.50875807E-17  1.86633320E+00  5.21011196E-33 -8.50875807E-17  1.86633320E+00
  5.21011196E-33 -8.50875807E-17  1.86633320E+00  5.21011196E-33 -8.50875807E-17
  1.86633320E+00  5.21011196E-33 -2.58622242E+00  1.05440273E+00  2.94350239E-33
 -2.58622242E+00  1.05440273E+00  2.94350239E-33 -2.58622242E+00  1.05440273E+00
  2.94350239E-33 -2.58622242E+00  1.05440273E+00  2.94350239E-33 -2.58622242E+00
  1.05440273E+00  2.94350239E-33 -2.58622242E+00  1.05440273E+00  2.94350239E-33
 -4.53612885E+00  2.24145105E+00  6.25730222E-33 -4.53612885E+00  2.24145105E+00
  6.25730222E-33 -4.53612885E+00  2.24145105E+00  6.25730222E-33 -4.53612885E+00
  2.24145105E+00  6.25730222E-33 -4.53612885E+00  2.24145105E+00  6.25730222E-33
 -4.53612885E+00  2.24145105E+00  6.25730222E-33 -2.69126642E+00 -1.64345912E+00
 -4.58792994E-33 -2.69126642E+00 -1.64345912E+00 -4.58792994E-33 -2.69126642E+00
 -1.64345912E+00 -4.58792994E-33 -2.69126642E+00 -1.64345912E+00 -4.58792994E-33
 -2.69126642E+00 -1.64345912E+00 -4.58792994E-33 -2.69126642E+00 -1.64345912E+00
 -4.58792994E-33 -6.74030895E-01 -3.25600194E+00 -9.08955305E-33 -6.74030895E-01
 -3.25600194E+00 -9.08955305E-33 -6.74030895E-01 -3.25600194E+00 -9.08955305E-33
 -6.74030895E-01 -3.25600194E+00 -9.08955305E-33 -6.74030895E-01 -3.25600194E+00
 -9.08955305E-33 -6.74030895E-01 -3.25600194E+00 -9.08955305E-33 -1.18585546E+00
 -5.76965898E+00 -1.61067537E-32 -1.18585546E+00 -5.76965898E+00 -1.61067537E-32
 -1.18585546E+00 -5.76965898E+00 -1.61067537E-32 -1.18585546E+00 -5.76965898E+00
 -1.61067537E-32 -1.18585546E+00 -5.76965898E+00 -1.61067537E-32 -1.18585546E+00
 -5.76965898E+00 -1.61067537E-32  1.66688240E+00 -2.49594825E+00 -6.96776427E-33
  1.66688240E+00 -2.49594825E+00 -6.96776427E-33  1.66688240E+00 -2.49594825E+00
 -6.96776427E-33  1.66688240E+00 -2.49594825E+00 -6.96776427E-33  1.66688240E+00
 -2.49594825E+00 -6.96776427E-33  1.66688240E+00 -2.49594825E+00 -6.96776427E-33
  1.88246972E+00  5.30617665E-02  1.48128825E-34  1.88246972E+00  5.30617665E-02
  1.48128825E-34  1.88246972E+00  5.30617665E-02  1.48128825E-34  1.88246972E+00
  5.30617665E-02  1.48128825E-34  1.88246972E+00  5.30617665E-02  1.48128825E-34
  1.88246972E+00  5.30617665E-02  1.48128825E-34  4.86263543E+00  5.37182846E+00
  1.49961580E-32  4.86263543E+00  5.37182846E+00  1.49961580E-32  4.86263543E+00
  5.37182846E+00  1.49961580E-32  4.86263543E+00  5.37182846E+00  1.49961580E-32
 -4.47402454E+00 -2.32954133E+00 -6.50321771E-33 -4.47402454E+00 -2.32954133E+00
 -6.50321771E-33 -4.47402454E+00 -2.32954133E+00 -6.50321771E-33 -4.47402454E+00
 -2.32954133E+00 -6.50321771E-33 -2.95133582E+00 -6.46024253E+00 -1.80346075E-32
 -2.95133582E+00 -6.46024253E+00 -1.80346075E-32 -2.95133582E+00 -6.46024253E+00
 -1.80346075E-32 -2.95133582E+00 -6.46024253E+00 -1.80346075E-32  2.87244728E-01
 -6.96805137E+00 -1.94522220E-32  2.87244728E-01 -6.96805137E+00 -1.94522220E-32
  2.87244728E-01 -6.96805137E+00 -1.94522220E-32  2.87244728E-01 -6.96805137E+00
 -1.94522220E-32  5.83719402E+00  6.21230911E-01  1.73424691E-33  5.83719402E+00
  6.21230911E-01  1.73424691E-33  5.83719402E+00  6.21230911E-01  1.73424691E-33
  5.83719402E+00  6.21230911E-01  1.73424691E-33
Num ILSW                                   I              100
ILSW                                       I   N=         100
           0           0           0           0           2           0
           0           0           0           0       20419          -1
           5           0           0           0           2           0
           0           0           0           0           1           0
           1           0           0           0           0           0
           0           0      100000           0          -1           0
           0           0           0           0           0           0
           0           0           0           1           0           0
           0 -2000000000           1           0           0           0
           0           0           4          52           0           0
           0           0          40           0           0           0
           0           0           0          16           0           1
           0           0           0           0           0           0
           0           0           0           0           0           0
           0           0           0           0           0           0
           0           0           0           0           0           0
           0           0           0           0
Num RLSW                                   I               52
RLSW                                       R   N=          52
  1.00000000E+00  1.00000000E+00  1.00000000E+00  8.10000000E-01  1.00000000E+00
  0.00000000E+00  3.30000000E-01  1.90000000E-01  0.00000000E+00  4.60000000E-01
  0.00000000E+00  3.30000000E-01  1.90000000E-01  0.00000000E+00  4.60000000E-01
  0.00000000E+00  0.00000000E+00  1.00000000E+00  0.00000000E+00  0.00000000E+00
  0.00000000E+00  0.00000000E+00  1.00000000E+00  0.00000000E+00  0.00000000E+00
  0.00000000E+00  0.00000000E+00  1.00000000E+00  0.00000000E+00  0.00000000E+00
  0.00000000E+00  0.00000000E+00  1.00000000E+00  0.00000000E+00  0.00000000E+00
  0.00000000E+00  0.00000000E+00  0.00000000E+00  1.00000000E+00  1.00000000E+00
  0.00000000E+00  1.00000000E+00  0.00000000E+00  0.00000000E+00  0.00000000E+00
  0.00000000E+00  0.00000000E+00  0.00000000E+00  0.00000000E+00  0.00000000E+00
  0.00000000E+00  0.00000000E+00
MxBond                                     I                3
NBond                                      I   N=          16
           3           3           2           3           3           1
           3           3           3           2           3           1
           1           1           1           1
IBond                                      I   N=          48
           2          11          16           1           3          12
           2           4           0           3           5          11
           4           6           7           5           0           0
           5           8          13           7           9          10
           8          14          15           8          11           0
           1           4          10           2           0           0
           7           0           0           9           0           0
           9           0           0           1           0           0
RBond                                      R   N=          48
  1.00000000E+00  1.50000000E+00  1.00000000E+00  1.00000000E+00  2.00000000E+00
  1.00000000E+00  2.00000000E+00  1.00000000E+00  0.00000000E+00  1.00000000E+00
  1.00000000E+00  1.50000000E+00  1.00000000E+00  2.00000000E+00  1.00000000E+00
  2.00000000E+00  0.00000000E+00  0.00000000E+00  1.00000000E+00  1.50000000E+00
  1.00000000E+00  1.50000000E+00  1.50000000E+00  2.00000000E+00  1.50000000E+00
  1.00000000E+00  1.00000000E+00  2.00000000E+00  1.50000000E+00  0.00000000E+00
  1.50000000E+00  1.50000000E+00  1.50000000E+00  1.00000000E+00  0.00000000E+00
  0.00000000E+00  1.00000000E+00  0.00000000E+00  0.00000000E+00  1.00000000E+00
  0.00000000E+00  0.00000000E+00  1.00000000E+00  0.00000000E+00  0.00000000E+00
  1.00000000E+00  0.00000000E+00  0.00000000E+00
Virial Ratio                               R      2.002961901368247E+00
SCF Energy                                 R     -5.424744002864952E+02
Total Energy                               R     -5.424744002864952E+02
RMS Force                                  R      1.083736861912491E-04
RMS Density                                R      5.862968453755733E-09
NImag                                      I                1
Job Status                                 I                1
Nuclear derivative order                   I                2
External E-field                           R   N=          35
  0.00000000E+00  0.00000000E+00  0.00000000E+00  0.00000000E+00  0.00000000E+00
  0.00000000E+00  0.00000000E+00  0.00000000E+00  0.00000000E+00  0.00000000E+00
  0.00000000E+00  0.00000000E+00  0.00000000E+00  0.00000000E+00  0.00000000E+00
  0.00000000E+00  0.00000000E+00  0.00000000E+00  0.00000000E+00  0.00000000E+00
  0.00000000E+00  0.00000000E+00  0.00000000E+00  0.00000000E+00  0.00000000E+00
  0.00000000E+00  0.00000000E+00  0.00000000E+00  0.00000000E+00  0.00000000E+00
  0.00000000E+00  0.00000000E+00  0.00000000E+00  0.00000000E+00  0.00000000E+00
IOpCl                                      I                0
IROHF                                      I                0
Alpha Orbital Energies                     R   N=         272
 -1.91661429E+01 -1.44529267E+01 -1.44501344E+01 -1.44354050E+01 -1.43899401E+01
 -1.43805167E+01 -1.03931949E+01 -1.03631394E+01 -1.03277898E+01 -1.03137640E+01
 -1.02665679E+01 -1.14916327E+00 -1.12236924E+00 -1.10375016E+00 -1.00995002E+00
 -1.00160616E+00 -9.68654498E-01 -8.52708282E-01 -7.61926610E-01 -7.49305004E-01
 -7.06734013E-01 -6.89776615E-01 -6.32999480E-01 -6.29726048E-01 -6.01827425E-01
 -5.69012410E-01 -5.64489602E-01 -5.39656183E-01 -5.13320899E-01 -5.08793303E-01
 -4.96202881E-01 -4.73772274E-01 -3.93990035E-01 -3.87934238E-01 -3.61295784E-01
 -3.53393119E-01 -3.43736963E-01 -3.34590224E-01 -2.71490975E-01  4.42205145E-03
  2.32824534E-02  2.98022982E-02  3.34070419E-02  4.37637270E-02  5.41937902E-02
  6.28765808E-02  6.59502270E-02  7.55568919E-02  8.28979911E-02  9.53037707E-02