 Entering Gaussian System, Link 0=/shared/gaussian/g16.b01/AVX2/g16/g16
 Input=snap008.S0.com
 Output=snap008.S0.log
 Initial command:
 /shared/gaussian/g16.b01/AVX2/g16/l1.exe "/scratch/giacomo/Gauscr/Gau-17155.inp" -scrdir="/scratch/giacomo/Gauscr/"
 Entering Link 1 = /shared/gaussian/g16.b01/AVX2/g16/l1.exe PID=     17156.
  
 Copyright (c) 1988-2017, Gaussian, Inc.  All Rights Reserved.
  
 This is part of the Gaussian(R) 16 program.  It is based on
 the Gaussian(R) 09 system (copyright 2009, Gaussian, Inc.),
 the Gaussian(R) 03 system (copyright 2003, Gaussian, Inc.),
 the Gaussian(R) 98 system (copyright 1998, Gaussian, Inc.),
 the Gaussian(R) 94 system (copyright 1995, Gaussian, Inc.),
 the Gaussian 92(TM) system (copyright 1992, Gaussian, Inc.),
 the Gaussian 90(TM) system (copyright 1990, Gaussian, Inc.),
 the Gaussian 88(TM) system (copyright 1988, Gaussian, Inc.),
 the Gaussian 86(TM) system (copyright 1986, Carnegie Mellon
 University), and the Gaussian 82(TM) system (copyright 1983,
 Carnegie Mellon University). Gaussian is a federally registered
 trademark of Gaussian, Inc.
  
 This software contains proprietary and confidential information,
 including trade secrets, belonging to Gaussian, Inc.
  
 This software is provided under written license and may be
 used, copied, transmitted, or stored only in accord with that
 written license.
  
 The following legend is applicable only to US Government
 contracts under FAR:
  
                    RESTRICTED RIGHTS LEGEND
  
 Use, reproduction and disclosure by the US Government is
 subject to restrictions as set forth in subparagraphs (a)
 and (c) of the Commercial Computer Software - Restricted
 Rights clause in FAR 52.227-19.
  
 Gaussian, Inc.
 340 Quinnipiac St., Bldg. 40, Wallingford CT 06492
  
  
 ---------------------------------------------------------------
 Warning -- This program may not be used in any manner that
 competes with the business of Gaussian, Inc. or will provide
 assistance to any competitor of Gaussian, Inc.  The licensee
 of this program is prohibited from giving any competitor of
 Gaussian, Inc. access to this program.  By using this program,
 the user acknowledges that Gaussian, Inc. is engaged in the
 business of creating and licensing software in the field of
 computational chemistry and represents and warrants to the
 licensee that it is not a competitor of Gaussian, Inc. and that
 it will not use this program in any manner prohibited above.
 ---------------------------------------------------------------
  

 Cite this work as:
 Gaussian 16, Revision B.01,
 M. J. Frisch, G. W. Trucks, H. B. Schlegel, G. E. Scuseria, 
 M. A. Robb, J. R. Cheeseman, G. Scalmani, V. Barone, 
 G. A. Petersson, H. Nakatsuji, X. Li, M. Caricato, A. V. Marenich, 
 J. Bloino, B. G. Janesko, R. Gomperts, B. Mennucci, H. P. Hratchian, 
 J. V. Ortiz, A. F. Izmaylov, J. L. Sonnenberg, D. Williams-Young, 
 F. Ding, F. Lipparini, F. Egidi, J. Goings, B. Peng, A. Petrone, 
 T. Henderson, D. Ranasinghe, V. G. Zakrzewski, J. Gao, N. Rega, 
 G. Zheng, W. Liang, M. Hada, M. Ehara, K. Toyota, R. Fukuda, 
 J. Hasegawa, M. Ishida, T. Nakajima, Y. Honda, O. Kitao, H. Nakai, 
 T. Vreven, K. Throssell, J. A. Montgomery, Jr., J. E. Peralta, 
 F. Ogliaro, M. J. Bearpark, J. J. Heyd, E. N. Brothers, K. N. Kudin, 
 V. N. Staroverov, T. A. Keith, R. Kobayashi, J. Normand, 
 K. Raghavachari, A. P. Rendell, J. C. Burant, S. S. Iyengar, 
 J. Tomasi, M. Cossi, J. M. Millam, M. Klene, C. Adamo, R. Cammi, 
 J. W. Ochterski, R. L. Martin, K. Morokuma, O. Farkas, 
 J. B. Foresman, and D. J. Fox, Gaussian, Inc., Wallingford CT, 2016.
 
 ******************************************
 Gaussian 16:  ES64L-G16RevB.01 20-Dec-2017
                17-Sep-2022 
 ******************************************
 %Nproc=32
 Will use up to   32 processors via shared memory.
 %Mem=120Gb
 %chk=temp.chk
 -------------------------------------------
 #p cam-b3lyp/6-31+G(d,p) nosymm charge Freq
 -------------------------------------------
 1/10=4,18=10,28=-2,30=1,38=1,125=101/1,3;
 2/12=2,15=1,17=6,18=5,40=1/2;
 3/5=1,6=6,7=111,11=2,25=1,30=1,71=2,74=-40,140=1/1,2,3;
 4//1;
 5/5=2,38=5,98=1/2;
 8/6=4,10=90,11=11/1;
 11/6=1,8=1,9=11,15=111,16=1,31=1/1,2,10;
 10/6=1,31=1/2;
 6/7=2,8=2,9=2,10=2,28=1/1;
 7/8=1,10=1,16=-2,25=1,30=1/1,2,3,16;
 1/10=4,18=10,28=-2,30=1/3;
 99//99;
 Leave Link    1 at Sat Sep 17 02:32:09 2022, MaxMem= 16106127360 cpu:               1.9 elap:               0.1
 (Enter /shared/gaussian/g16.b01/AVX2/g16/l101.exe)
 ------------------------------------------
 Calculation for S0 with freq for abs spect
 ------------------------------------------
 Symbolic Z-matrix:
 Charge =  0 Multiplicity = 1
 C                     16.13786   17.51099   15.84572 
 C                     17.92326   15.96564   16.3914 
 C                     17.16508   15.44309   17.39963 
 C                     15.71166   15.67772   17.48658 
 N                     15.35067   16.82832   16.71367 
 H                     18.9043   15.49581   16.18259 
 H                     17.57878   14.73621   18.08825 
 O                     14.86032   15.11712   18.06124 
 O                     15.77401   18.5013   15.22067 
 N                     17.46211   16.98974   15.66137 
 H                     18.15746   17.49352   15.14926 
 H                     14.3332   17.11309   16.77101 
 O                     13.28373   14.49456   20.54613 
 H                     13.65604   14.61803   19.67299 
 H                     13.9808   14.76345   21.14448 
 O                     21.41165   15.88413   17.559 
 H                     21.77563   15.61232   18.40154 
 H                     20.95192   16.70197   17.7488 
 O                     15.25504   19.6313   19.91565 
 H                     15.62359   20.21072   19.24881 
 H                     14.32446   19.8542   19.9395 
 O                     13.55163   16.59918   14.21026 
 H                     14.1856   17.13639   14.68536 
 H                     13.98802   15.75446   14.09958 
 O                     12.74956   18.8424   17.21398 
 H                     12.53244   17.9285   17.39806 
 H                     12.79049   19.25756   18.07549 
 O                     19.545    15.93222   12.48813 
 H                     19.74179   16.40575   11.67988 
 H                     18.61523   16.09851   12.64339 
 O                     19.4181   18.47331   14.04516 
 H                     19.99347   17.78992   13.70142 
 H                     20.01226   19.1093   14.44355 
 O                     18.72375   17.6928   20.86018 
 H                     19.19745   18.52456   20.85624 
 H                     19.40549   17.02791   20.76329 
 O                     18.44489   20.41673   16.68395 
 H                     18.71965   21.25383   17.05811 
 H                     17.62232   20.2133   17.12918 
 O                     16.65024   16.00007   13.1788 
 H                     15.96813   15.47468   13.59704 
 H                     16.29673   16.2077   12.31384 
 O                     19.7314   13.64943   14.06034 
 H                     20.64859   13.50188   13.82964 
 H                     19.53879   14.5266   13.72924 
 O                     14.95928   14.11069   14.25214 
 H                     14.79495   13.62671   13.44282 
 H                     14.75881   13.48675   14.94981 
 O                     20.07308   18.08362   18.34658 
 H                     19.48157   18.46934   18.99278 
 H                     19.63524   18.22334   17.50693 
 O                     15.6825   20.31562   17.37934 
 H                     15.58229   19.81376   16.57043 
 H                     15.48728   21.21823   17.12751 
 O                     17.32692   20.10589   12.91712 
 H                     18.11356   19.57298   13.03305 
 H                     16.77459   19.88476   13.66696 
 O                     15.00813   12.45508   16.84419 
 H                     14.24289   12.07688   16.41104 
 H                     14.68523   12.73481   17.70076 
 O                     17.65509   11.6444   16.62673 
 H                     18.07284   12.50563   16.62933 
 H                     16.73274   11.82561   16.446 
 O                     12.41042   16.29075   17.49539 
 H                     11.97612   15.72194   16.85972 
 H                     12.99887   15.70839   17.97582 
 
 ITRead=  0  0  0  0  0  0  0  0  0  0  0  0  0  0  0  0  0  0  0  0
 ITRead=  0  0  0  0  0  0  0  0  0  0  0  0  0  0  0  0  0  0  0  0
 ITRead=  0  0  0  0  0  0  0  0  0  0  0  0  0  0  0  0  0  0  0  0
 ITRead=  0  0  0  0  0  0
 MicOpt= -1 -1 -1 -1 -1 -1 -1 -1 -1 -1 -1 -1 -1 -1 -1 -1 -1 -1 -1 -1
 MicOpt= -1 -1 -1 -1 -1 -1 -1 -1 -1 -1 -1 -1 -1 -1 -1 -1 -1 -1 -1 -1
 MicOpt= -1 -1 -1 -1 -1 -1 -1 -1 -1 -1 -1 -1 -1 -1 -1 -1 -1 -1 -1 -1
 MicOpt= -1 -1 -1 -1 -1 -1
 NAtoms=     66 NQM=       66 NQMF=       0 NMMI=      0 NMMIF=      0
                NMic=       0 NMicF=      0.
                    Isotopes and Nuclear Properties:
 (Nuclear quadrupole moments (NQMom) in fm**2, nuclear magnetic moments (NMagM)
  in nuclear magnetons)

  Atom         1           2           3           4           5           6           7           8           9          10
 IAtWgt=          12          12          12          12          14           1           1          16          16          14
 AtmWgt=  12.0000000  12.0000000  12.0000000  12.0000000  14.0030740   1.0078250   1.0078250  15.9949146  15.9949146  14.0030740
 NucSpn=           0           0           0           0           2           1           1           0           0           2
 AtZEff=  -0.0000000  -0.0000000  -0.0000000  -0.0000000  -0.0000000  -0.0000000  -0.0000000  -0.0000000  -0.0000000  -0.0000000
 NQMom=    0.0000000   0.0000000   0.0000000   0.0000000   2.0440000   0.0000000   0.0000000   0.0000000   0.0000000   2.0440000
 NMagM=    0.0000000   0.0000000   0.0000000   0.0000000   0.4037610   2.7928460   2.7928460   0.0000000   0.0000000   0.4037610
 AtZNuc=   6.0000000   6.0000000   6.0000000   6.0000000   7.0000000   1.0000000   1.0000000   8.0000000   8.0000000   7.0000000

  Atom        11          12          13          14          15          16          17          18          19          20
 IAtWgt=           1           1          16           1           1          16           1           1          16           1
 AtmWgt=   1.0078250   1.0078250  15.9949146   1.0078250   1.0078250  15.9949146   1.0078250   1.0078250  15.9949146   1.0078250
 NucSpn=           1           1           0           1           1           0           1           1           0           1
 AtZEff=  -0.0000000  -0.0000000  -0.0000000  -0.0000000  -0.0000000  -0.0000000  -0.0000000  -0.0000000  -0.0000000  -0.0000000
 NQMom=    0.0000000   0.0000000   0.0000000   0.0000000   0.0000000   0.0000000   0.0000000   0.0000000   0.0000000   0.0000000
 NMagM=    2.7928460   2.7928460   0.0000000   2.7928460   2.7928460   0.0000000   2.7928460   2.7928460   0.0000000   2.7928460
 AtZNuc=   1.0000000   1.0000000   8.0000000   1.0000000   1.0000000   8.0000000   1.0000000   1.0000000   8.0000000   1.0000000

  Atom        21          22          23          24          25          26          27          28          29          30
 IAtWgt=           1          16           1           1          16           1           1          16           1           1
 AtmWgt=   1.0078250  15.9949146   1.0078250   1.0078250  15.9949146   1.0078250   1.0078250  15.9949146   1.0078250   1.0078250
 NucSpn=           1           0           1           1           0           1           1           0           1           1
 AtZEff=  -0.0000000  -0.0000000  -0.0000000  -0.0000000  -0.0000000  -0.0000000  -0.0000000  -0.0000000  -0.0000000  -0.0000000
 NQMom=    0.0000000   0.0000000   0.0000000   0.0000000   0.0000000   0.0000000   0.0000000   0.0000000   0.0000000   0.0000000
 NMagM=    2.7928460   0.0000000   2.7928460   2.7928460   0.0000000   2.7928460   2.7928460   0.0000000   2.7928460   2.7928460
 AtZNuc=   1.0000000   8.0000000   1.0000000   1.0000000   8.0000000   1.0000000   1.0000000   8.0000000   1.0000000   1.0000000

  Atom        31          32          33          34          35          36          37          38          39          40
 IAtWgt=          16           1           1          16           1           1          16           1           1          16
 AtmWgt=  15.9949146   1.0078250   1.0078250  15.9949146   1.0078250   1.0078250  15.9949146   1.0078250   1.0078250  15.9949146
 NucSpn=           0           1           1           0           1           1           0           1           1           0
 AtZEff=  -0.0000000  -0.0000000  -0.0000000  -0.0000000  -0.0000000  -0.0000000  -0.0000000  -0.0000000  -0.0000000  -0.0000000
 NQMom=    0.0000000   0.0000000   0.0000000   0.0000000   0.0000000   0.0000000   0.0000000   0.0000000   0.0000000   0.0000000
 NMagM=    0.0000000   2.7928460   2.7928460   0.0000000   2.7928460   2.7928460   0.0000000   2.7928460   2.7928460   0.0000000
 AtZNuc=   8.0000000   1.0000000   1.0000000   8.0000000   1.0000000   1.0000000   8.0000000   1.0000000   1.0000000   8.0000000

  Atom        41          42          43          44          45          46          47          48          49          50
 IAtWgt=           1           1          16           1           1          16           1           1          16           1
 AtmWgt=   1.0078250   1.0078250  15.9949146   1.0078250   1.0078250  15.9949146   1.0078250   1.0078250  15.9949146   1.0078250
 NucSpn=           1           1           0           1           1           0           1           1           0           1
 AtZEff=  -0.0000000  -0.0000000  -0.0000000  -0.0000000  -0.0000000  -0.0000000  -0.0000000  -0.0000000  -0.0000000  -0.0000000
 NQMom=    0.0000000   0.0000000   0.0000000   0.0000000   0.0000000   0.0000000   0.0000000   0.0000000   0.0000000   0.0000000
 NMagM=    2.7928460   2.7928460   0.0000000   2.7928460   2.7928460   0.0000000   2.7928460   2.7928460   0.0000000   2.7928460
 AtZNuc=   1.0000000   1.0000000   8.0000000   1.0000000   1.0000000   8.0000000   1.0000000   1.0000000   8.0000000   1.0000000

  Atom        51          52          53          54          55          56          57          58          59          60
 IAtWgt=           1          16           1           1          16           1           1          16           1           1
 AtmWgt=   1.0078250  15.9949146   1.0078250   1.0078250  15.9949146   1.0078250   1.0078250  15.9949146   1.0078250   1.0078250
 NucSpn=           1           0           1           1           0           1           1           0           1           1
 AtZEff=  -0.0000000  -0.0000000  -0.0000000  -0.0000000  -0.0000000  -0.0000000  -0.0000000  -0.0000000  -0.0000000  -0.0000000
 NQMom=    0.0000000   0.0000000   0.0000000   0.0000000   0.0000000   0.0000000   0.0000000   0.0000000   0.0000000   0.0000000
 NMagM=    2.7928460   0.0000000   2.7928460   2.7928460   0.0000000   2.7928460   2.7928460   0.0000000   2.7928460   2.7928460
 AtZNuc=   1.0000000   8.0000000   1.0000000   1.0000000   8.0000000   1.0000000   1.0000000   8.0000000   1.0000000   1.0000000

  Atom        61          62          63          64          65          66
 IAtWgt=          16           1           1          16           1           1
 AtmWgt=  15.9949146   1.0078250   1.0078250  15.9949146   1.0078250   1.0078250
 NucSpn=           0           1           1           0           1           1
 AtZEff=  -0.0000000  -0.0000000  -0.0000000  -0.0000000  -0.0000000  -0.0000000
 NQMom=    0.0000000   0.0000000   0.0000000   0.0000000   0.0000000   0.0000000
 NMagM=    0.0000000   2.7928460   2.7928460   0.0000000   2.7928460   2.7928460
 AtZNuc=   8.0000000   1.0000000   1.0000000   8.0000000   1.0000000   1.0000000
 Background charge distribution read from input stream:
 Point Charges:
 XYZ=   27.4095   17.1209   11.0931 Q=   -0.8340 A=    0.0000 R=    0.0000 C=    0.0000
 XYZ=   28.0953   16.7891   11.6727 Q=    0.4170 A=    0.0000 R=    0.0000 C=    0.0000
 XYZ=   26.9208   17.7435   11.6315 Q=    0.4170 A=    0.0000 R=    0.0000 C=    0.0000
 XYZ=   19.2458   20.8305    5.5413 Q=   -0.8340 A=    0.0000 R=    0.0000 C=    0.0000
 XYZ=   19.1205   19.9449    5.2004 Q=    0.4170 A=    0.0000 R=    0.0000 C=    0.0000
 XYZ=   18.5370   20.9467    6.1740 Q=    0.4170 A=    0.0000 R=    0.0000 C=    0.0000
 XYZ=   24.2224   20.7545   28.4222 Q=   -0.8340 A=    0.0000 R=    0.0000 C=    0.0000
 XYZ=   23.5721   21.3185   28.8407 Q=    0.4170 A=    0.0000 R=    0.0000 C=    0.0000
 XYZ=   24.4979   21.2412   27.6454 Q=    0.4170 A=    0.0000 R=    0.0000 C=    0.0000
 XYZ=    9.5758   24.2975   16.7923 Q=   -0.8340 A=    0.0000 R=    0.0000 C=    0.0000
 XYZ=   10.2810   23.8933   16.2868 Q=    0.4170 A=    0.0000 R=    0.0000 C=    0.0000
 XYZ=    9.5987   23.8488   17.6375 Q=    0.4170 A=    0.0000 R=    0.0000 C=    0.0000
 XYZ=   23.3157   18.5811    5.1207 Q=   -0.8340 A=    0.0000 R=    0.0000 C=    0.0000
 XYZ=   24.1428   18.2038    5.4202 Q=    0.4170 A=    0.0000 R=    0.0000 C=    0.0000
 XYZ=   22.6775   18.3168    5.7833 Q=    0.4170 A=    0.0000 R=    0.0000 C=    0.0000
 XYZ=   11.8670    8.1415   25.0948 Q=   -0.8340 A=    0.0000 R=    0.0000 C=    0.0000
 XYZ=   11.5770    8.7245   24.3932 Q=    0.4170 A=    0.0000 R=    0.0000 C=    0.0000
 XYZ=   12.6404    7.7040   24.7390 Q=    0.4170 A=    0.0000 R=    0.0000 C=    0.0000
 XYZ=   19.9833   23.1405   12.0489 Q=   -0.8340 A=    0.0000 R=    0.0000 C=    0.0000
 XYZ=   19.1363   22.7367   12.2379 Q=    0.4170 A=    0.0000 R=    0.0000 C=    0.0000
 XYZ=   19.8291   24.0799   12.1490 Q=    0.4170 A=    0.0000 R=    0.0000 C=    0.0000
 XYZ=    3.9874   19.5588   11.6910 Q=   -0.8340 A=    0.0000 R=    0.0000 C=    0.0000
 XYZ=    3.9338   20.0880   10.8952 Q=    0.4170 A=    0.0000 R=    0.0000 C=    0.0000
 XYZ=    4.8501   19.7584   12.0543 Q=    0.4170 A=    0.0000 R=    0.0000 C=    0.0000
 XYZ=   13.4645   13.3588    7.0556 Q=   -0.8340 A=    0.0000 R=    0.0000 C=    0.0000
 XYZ=   12.9356   12.5778    6.8930 Q=    0.4170 A=    0.0000 R=    0.0000 C=    0.0000
 XYZ=   14.3689   13.0470    7.0239 Q=    0.4170 A=    0.0000 R=    0.0000 C=    0.0000
 XYZ=   21.9077   16.6509    2.8829 Q=   -0.8340 A=    0.0000 R=    0.0000 C=    0.0000
 XYZ=   21.8208   16.5785    3.8334 Q=    0.4170 A=    0.0000 R=    0.0000 C=    0.0000
 XYZ=   21.8750   15.7471    2.5694 Q=    0.4170 A=    0.0000 R=    0.0000 C=    0.0000
 XYZ=   26.4495   14.5015   10.2419 Q=   -0.8340 A=    0.0000 R=    0.0000 C=    0.0000
 XYZ=   27.0317   14.0497    9.6312 Q=    0.4170 A=    0.0000 R=    0.0000 C=    0.0000
 XYZ=   26.8157   15.3828   10.3152 Q=    0.4170 A=    0.0000 R=    0.0000 C=    0.0000
 XYZ=   25.0660    6.5932   23.3463 Q=   -0.8340 A=    0.0000 R=    0.0000 C=    0.0000
 XYZ=   24.2284    6.9547   23.6361 Q=    0.4170 A=    0.0000 R=    0.0000 C=    0.0000
 XYZ=   25.1793    5.8002   23.8702 Q=    0.4170 A=    0.0000 R=    0.0000 C=    0.0000
 XYZ=   16.1379   10.4459   19.8588 Q=   -0.8340 A=    0.0000 R=    0.0000 C=    0.0000
 XYZ=   16.6170    9.7330   20.2813 Q=    0.4170 A=    0.0000 R=    0.0000 C=    0.0000
 XYZ=   15.5812   10.0112   19.2128 Q=    0.4170 A=    0.0000 R=    0.0000 C=    0.0000
 XYZ=    8.1577    9.8179   13.3493 Q=   -0.8340 A=    0.0000 R=    0.0000 C=    0.0000
 XYZ=    7.6990    8.9780   13.3320 Q=    0.4170 A=    0.0000 R=    0.0000 C=    0.0000
 XYZ=    8.1410   10.0816   14.2693 Q=    0.4170 A=    0.0000 R=    0.0000 C=    0.0000
 XYZ=   18.5998   22.8389    3.7036 Q=   -0.8340 A=    0.0000 R=    0.0000 C=    0.0000
 XYZ=   19.0866   22.1919    4.2141 Q=    0.4170 A=    0.0000 R=    0.0000 C=    0.0000
 XYZ=   17.7762   22.9492    4.1787 Q=    0.4170 A=    0.0000 R=    0.0000 C=    0.0000
 XYZ=   25.8599   21.2614    6.2031 Q=   -0.8340 A=    0.0000 R=    0.0000 C=    0.0000
 XYZ=   25.4864   22.1418    6.2422 Q=    0.4170 A=    0.0000 R=    0.0000 C=    0.0000
 XYZ=   25.8107   21.0207    5.2780 Q=    0.4170 A=    0.0000 R=    0.0000 C=    0.0000
 XYZ=   10.7318   18.3086    4.3309 Q=   -0.8340 A=    0.0000 R=    0.0000 C=    0.0000
 XYZ=    9.8345   18.6401    4.3640 Q=    0.4170 A=    0.0000 R=    0.0000 C=    0.0000
 XYZ=   11.1598   18.8410    3.6604 Q=    0.4170 A=    0.0000 R=    0.0000 C=    0.0000
 XYZ=   10.5322   11.9792    7.1208 Q=   -0.8340 A=    0.0000 R=    0.0000 C=    0.0000
 XYZ=    9.8334   11.4197    6.7821 Q=    0.4170 A=    0.0000 R=    0.0000 C=    0.0000
 XYZ=   10.0959   12.8028    7.3387 Q=    0.4170 A=    0.0000 R=    0.0000 C=    0.0000
 XYZ=   26.2553   27.4886   20.4541 Q=   -0.8340 A=    0.0000 R=    0.0000 C=    0.0000
 XYZ=   26.6171   27.9477   19.6962 Q=    0.4170 A=    0.0000 R=    0.0000 C=    0.0000
 XYZ=   26.2794   26.5637   20.2085 Q=    0.4170 A=    0.0000 R=    0.0000 C=    0.0000
 XYZ=   27.3708    6.8721   21.6230 Q=   -0.8340 A=    0.0000 R=    0.0000 C=    0.0000
 XYZ=   26.4926    6.8906   22.0034 Q=    0.4170 A=    0.0000 R=    0.0000 C=    0.0000
 XYZ=   27.8624    7.5241   22.1224 Q=    0.4170 A=    0.0000 R=    0.0000 C=    0.0000
 XYZ=   22.8682   22.9824    6.5047 Q=   -0.8340 A=    0.0000 R=    0.0000 C=    0.0000
 XYZ=   22.3171   22.4989    7.1201 Q=    0.4170 A=    0.0000 R=    0.0000 C=    0.0000
 XYZ=   23.6829   23.1373    6.9828 Q=    0.4170 A=    0.0000 R=    0.0000 C=    0.0000
 XYZ=   25.2968   19.1079    8.0888 Q=   -0.8340 A=    0.0000 R=    0.0000 C=    0.0000
 XYZ=   24.4730   19.3465    8.5139 Q=    0.4170 A=    0.0000 R=    0.0000 C=    0.0000
 XYZ=   25.4936   19.8481    7.5146 Q=    0.4170 A=    0.0000 R=    0.0000 C=    0.0000
 XYZ=   12.9434   11.5210   14.9977 Q=   -0.8340 A=    0.0000 R=    0.0000 C=    0.0000
 XYZ=   12.2516   10.9580   14.6503 Q=    0.4170 A=    0.0000 R=    0.0000 C=    0.0000
 XYZ=   12.6540   12.4104   14.7938 Q=    0.4170 A=    0.0000 R=    0.0000 C=    0.0000
 XYZ=   15.9890   28.3208   10.0391 Q=   -0.8340 A=    0.0000 R=    0.0000 C=    0.0000
 XYZ=   15.4877   27.6185    9.6248 Q=    0.4170 A=    0.0000 R=    0.0000 C=    0.0000
 XYZ=   16.4595   27.8909   10.7532 Q=    0.4170 A=    0.0000 R=    0.0000 C=    0.0000
 XYZ=    7.1830   10.7499   15.9783 Q=   -0.8340 A=    0.0000 R=    0.0000 C=    0.0000
 XYZ=    7.0624    9.8171   16.1562 Q=    0.4170 A=    0.0000 R=    0.0000 C=    0.0000
 XYZ=    6.3215   11.1371   16.1335 Q=    0.4170 A=    0.0000 R=    0.0000 C=    0.0000
 XYZ=   25.3543   22.2212   26.0941 Q=   -0.8340 A=    0.0000 R=    0.0000 C=    0.0000
 XYZ=   25.9666   21.5300   26.3461 Q=    0.4170 A=    0.0000 R=    0.0000 C=    0.0000
 XYZ=   24.9265   21.8872   25.3057 Q=    0.4170 A=    0.0000 R=    0.0000 C=    0.0000
 XYZ=   17.8785   25.0072   18.4913 Q=   -0.8340 A=    0.0000 R=    0.0000 C=    0.0000
 XYZ=   18.7709   25.3284   18.3616 Q=    0.4170 A=    0.0000 R=    0.0000 C=    0.0000
 XYZ=   17.4775   25.0555   17.6235 Q=    0.4170 A=    0.0000 R=    0.0000 C=    0.0000
 XYZ=   24.6077   13.7583   22.0652 Q=   -0.8340 A=    0.0000 R=    0.0000 C=    0.0000
 XYZ=   24.1729   14.3879   22.6404 Q=    0.4170 A=    0.0000 R=    0.0000 C=    0.0000
 XYZ=   25.1357   13.2197   22.6546 Q=    0.4170 A=    0.0000 R=    0.0000 C=    0.0000
 XYZ=   11.8424    9.3503    6.8393 Q=   -0.8340 A=    0.0000 R=    0.0000 C=    0.0000
 XYZ=   11.5188   10.2118    6.5760 Q=    0.4170 A=    0.0000 R=    0.0000 C=    0.0000
 XYZ=   12.4210    9.5276    7.5809 Q=    0.4170 A=    0.0000 R=    0.0000 C=    0.0000
 XYZ=   14.0159    4.7756   12.5076 Q=   -0.8340 A=    0.0000 R=    0.0000 C=    0.0000
 XYZ=   13.2739    4.3066   12.1259 Q=    0.4170 A=    0.0000 R=    0.0000 C=    0.0000
 XYZ=   14.5198    4.0995   12.9606 Q=    0.4170 A=    0.0000 R=    0.0000 C=    0.0000
 XYZ=   12.1762   19.1598   24.3565 Q=   -0.8340 A=    0.0000 R=    0.0000 C=    0.0000
 XYZ=   12.5239   18.3026   24.6025 Q=    0.4170 A=    0.0000 R=    0.0000 C=    0.0000
 XYZ=   12.8002   19.4964   23.7134 Q=    0.4170 A=    0.0000 R=    0.0000 C=    0.0000
 XYZ=   21.7581   22.6283    3.7319 Q=   -0.8340 A=    0.0000 R=    0.0000 C=    0.0000
 XYZ=   22.0672   22.4839    4.6262 Q=    0.4170 A=    0.0000 R=    0.0000 C=    0.0000
 XYZ=   21.0546   21.9898    3.6151 Q=    0.4170 A=    0.0000 R=    0.0000 C=    0.0000
 XYZ=   13.9472   14.8860   29.8901 Q=   -0.8340 A=    0.0000 R=    0.0000 C=    0.0000
 XYZ=   13.9027   15.5148   30.6104 Q=    0.4170 A=    0.0000 R=    0.0000 C=    0.0000
 XYZ=   13.0943   14.4514   29.8980 Q=    0.4170 A=    0.0000 R=    0.0000 C=    0.0000
 XYZ=   12.0695    4.8410   14.6024 Q=   -0.8340 A=    0.0000 R=    0.0000 C=    0.0000
 XYZ=   12.6809    4.7443   13.8723 Q=    0.4170 A=    0.0000 R=    0.0000 C=    0.0000
 XYZ=   11.2702    5.1834   14.2023 Q=    0.4170 A=    0.0000 R=    0.0000 C=    0.0000
 XYZ=   14.4114   22.9163    7.7255 Q=   -0.8340 A=    0.0000 R=    0.0000 C=    0.0000
 XYZ=   15.0014   23.6609    7.6085 Q=    0.4170 A=    0.0000 R=    0.0000 C=    0.0000
 XYZ=   13.5345   23.2867    7.6247 Q=    0.4170 A=    0.0000 R=    0.0000 C=    0.0000
 XYZ=    3.0795   18.2967   23.3906 Q=   -0.8340 A=    0.0000 R=    0.0000 C=    0.0000
 XYZ=    3.5605   17.4694   23.4093 Q=    0.4170 A=    0.0000 R=    0.0000 C=    0.0000
 XYZ=    3.4548   18.8088   24.1069 Q=    0.4170 A=    0.0000 R=    0.0000 C=    0.0000
 XYZ=    9.5610   10.1282   25.4999 Q=   -0.8340 A=    0.0000 R=    0.0000 C=    0.0000
 XYZ=    9.1683   10.9893   25.3573 Q=    0.4170 A=    0.0000 R=    0.0000 C=    0.0000
 XYZ=   10.4736   10.3142   25.7210 Q=    0.4170 A=    0.0000 R=    0.0000 C=    0.0000
 XYZ=    9.3233   18.6606   23.1685 Q=   -0.8340 A=    0.0000 R=    0.0000 C=    0.0000
 XYZ=    9.1096   17.9649   22.5468 Q=    0.4170 A=    0.0000 R=    0.0000 C=    0.0000
 XYZ=   10.2550   18.8299   23.0283 Q=    0.4170 A=    0.0000 R=    0.0000 C=    0.0000
 XYZ=   13.5773   13.1924   11.8928 Q=   -0.8340 A=    0.0000 R=    0.0000 C=    0.0000
 XYZ=   13.8882   13.9207   11.3552 Q=    0.4170 A=    0.0000 R=    0.0000 C=    0.0000
 XYZ=   12.6339   13.1620   11.7333 Q=    0.4170 A=    0.0000 R=    0.0000 C=    0.0000
 XYZ=   28.8208   18.4862   18.1949 Q=   -0.8340 A=    0.0000 R=    0.0000 C=    0.0000
 XYZ=   28.3824   19.3092   18.4108 Q=    0.4170 A=    0.0000 R=    0.0000 C=    0.0000
 XYZ=   28.1107   17.8488   18.1187 Q=    0.4170 A=    0.0000 R=    0.0000 C=    0.0000
 XYZ=    7.7200   15.4875   17.3168 Q=   -0.8340 A=    0.0000 R=    0.0000 C=    0.0000
 XYZ=    6.9515   14.9963   17.0264 Q=    0.4170 A=    0.0000 R=    0.0000 C=    0.0000
 XYZ=    7.5388   15.6970   18.2330 Q=    0.4170 A=    0.0000 R=    0.0000 C=    0.0000
 XYZ=   17.2025   17.0307   29.8166 Q=   -0.8340 A=    0.0000 R=    0.0000 C=    0.0000
 XYZ=   17.7242   16.3075   30.1647 Q=    0.4170 A=    0.0000 R=    0.0000 C=    0.0000
 XYZ=   17.8205   17.5431   29.2953 Q=    0.4170 A=    0.0000 R=    0.0000 C=    0.0000
 XYZ=   24.2689   11.4596   15.1415 Q=   -0.8340 A=    0.0000 R=    0.0000 C=    0.0000
 XYZ=   24.0385   10.6136   14.7575 Q=    0.4170 A=    0.0000 R=    0.0000 C=    0.0000
 XYZ=   24.0961   12.0940   14.4458 Q=    0.4170 A=    0.0000 R=    0.0000 C=    0.0000
 XYZ=   24.2447   16.1731   24.2303 Q=   -0.8340 A=    0.0000 R=    0.0000 C=    0.0000
 XYZ=   23.6928   16.4513   23.4994 Q=    0.4170 A=    0.0000 R=    0.0000 C=    0.0000
 XYZ=   24.1188   16.8485   24.8968 Q=    0.4170 A=    0.0000 R=    0.0000 C=    0.0000
 XYZ=   17.3912   24.1060   10.2969 Q=   -0.8340 A=    0.0000 R=    0.0000 C=    0.0000
 XYZ=   16.9490   23.3765   10.7311 Q=    0.4170 A=    0.0000 R=    0.0000 C=    0.0000
 XYZ=   16.6803   24.6616    9.9774 Q=    0.4170 A=    0.0000 R=    0.0000 C=    0.0000
 XYZ=   11.1663   26.8590   18.0226 Q=   -0.8340 A=    0.0000 R=    0.0000 C=    0.0000
 XYZ=   10.8538   27.5546   18.6011 Q=    0.4170 A=    0.0000 R=    0.0000 C=    0.0000
 XYZ=   10.5697   26.1277   18.1826 Q=    0.4170 A=    0.0000 R=    0.0000 C=    0.0000
 XYZ=   15.6887    9.2844   10.7629 Q=   -0.8340 A=    0.0000 R=    0.0000 C=    0.0000
 XYZ=   15.0037    9.4633   11.4071 Q=    0.4170 A=    0.0000 R=    0.0000 C=    0.0000
 XYZ=   16.4937    9.5976   11.1753 Q=    0.4170 A=    0.0000 R=    0.0000 C=    0.0000
 XYZ=   19.7090   24.7440    6.1728 Q=   -0.8340 A=    0.0000 R=    0.0000 C=    0.0000
 XYZ=   19.1509   25.4385    6.5228 Q=    0.4170 A=    0.0000 R=    0.0000 C=    0.0000
 XYZ=   20.4448   25.2066    5.7718 Q=    0.4170 A=    0.0000 R=    0.0000 C=    0.0000
 XYZ=    6.1662   24.0055   22.4789 Q=   -0.8340 A=    0.0000 R=    0.0000 C=    0.0000
 XYZ=    6.1570   24.6219   21.7466 Q=    0.4170 A=    0.0000 R=    0.0000 C=    0.0000
 XYZ=    6.4969   24.5159   23.2181 Q=    0.4170 A=    0.0000 R=    0.0000 C=    0.0000
 XYZ=   24.2626    7.9854   20.5224 Q=   -0.8340 A=    0.0000 R=    0.0000 C=    0.0000
 XYZ=   24.3186    7.3346   21.2221 Q=    0.4170 A=    0.0000 R=    0.0000 C=    0.0000
 XYZ=   24.8919    8.6618   20.7728 Q=    0.4170 A=    0.0000 R=    0.0000 C=    0.0000
 XYZ=   18.2959   29.5340   15.6474 Q=   -0.8340 A=    0.0000 R=    0.0000 C=    0.0000
 XYZ=   17.4850   29.7905   15.2083 Q=    0.4170 A=    0.0000 R=    0.0000 C=    0.0000
 XYZ=   18.4404   28.6280   15.3743 Q=    0.4170 A=    0.0000 R=    0.0000 C=    0.0000
 XYZ=   14.4038   10.6982   12.8442 Q=   -0.8340 A=    0.0000 R=    0.0000 C=    0.0000
 XYZ=   13.9901   10.6421   13.7055 Q=    0.4170 A=    0.0000 R=    0.0000 C=    0.0000
 XYZ=   14.0385   11.4921   12.4537 Q=    0.4170 A=    0.0000 R=    0.0000 C=    0.0000
 XYZ=   16.5533   14.6614   28.6467 Q=   -0.8340 A=    0.0000 R=    0.0000 C=    0.0000
 XYZ=   15.7329   14.8373   29.1074 Q=    0.4170 A=    0.0000 R=    0.0000 C=    0.0000
 XYZ=   17.0639   15.4643   28.7509 Q=    0.4170 A=    0.0000 R=    0.0000 C=    0.0000
 XYZ=   12.8583    9.0104   27.4034 Q=   -0.8340 A=    0.0000 R=    0.0000 C=    0.0000
 XYZ=   12.7400    8.7949   26.4783 Q=    0.4170 A=    0.0000 R=    0.0000 C=    0.0000
 XYZ=   12.2336    9.7169   27.5671 Q=    0.4170 A=    0.0000 R=    0.0000 C=    0.0000
 XYZ=   10.1080   19.8496   26.5442 Q=   -0.8340 A=    0.0000 R=    0.0000 C=    0.0000
 XYZ=   10.1791   19.3182   25.7513 Q=    0.4170 A=    0.0000 R=    0.0000 C=    0.0000
 XYZ=   10.7651   20.5366   26.4325 Q=    0.4170 A=    0.0000 R=    0.0000 C=    0.0000
 XYZ=   20.2829   26.3226   18.1460 Q=   -0.8340 A=    0.0000 R=    0.0000 C=    0.0000
 XYZ=   20.3751   27.2732   18.2093 Q=    0.4170 A=    0.0000 R=    0.0000 C=    0.0000
 XYZ=   20.4223   26.1291   17.2190 Q=    0.4170 A=    0.0000 R=    0.0000 C=    0.0000
 XYZ=   15.8914    9.6169    8.1268 Q=   -0.8340 A=    0.0000 R=    0.0000 C=    0.0000
 XYZ=   16.0382    9.2384    8.9937 Q=    0.4170 A=    0.0000 R=    0.0000 C=    0.0000
 XYZ=   16.0776    8.9021    7.5181 Q=    0.4170 A=    0.0000 R=    0.0000 C=    0.0000
 XYZ=    7.1368   18.8998   24.7781 Q=   -0.8340 A=    0.0000 R=    0.0000 C=    0.0000
 XYZ=    7.6899   18.5217   24.0944 Q=    0.4170 A=    0.0000 R=    0.0000 C=    0.0000
 XYZ=    6.9204   19.7746   24.4552 Q=    0.4170 A=    0.0000 R=    0.0000 C=    0.0000
 XYZ=   23.4871   23.4810   16.0362 Q=   -0.8340 A=    0.0000 R=    0.0000 C=    0.0000
 XYZ=   23.8706   22.9118   15.3691 Q=    0.4170 A=    0.0000 R=    0.0000 C=    0.0000
 XYZ=   22.7155   23.8591   15.6144 Q=    0.4170 A=    0.0000 R=    0.0000 C=    0.0000
 XYZ=    7.1872    9.6462   23.7802 Q=   -0.8340 A=    0.0000 R=    0.0000 C=    0.0000
 XYZ=    7.8417    9.8954   24.4327 Q=    0.4170 A=    0.0000 R=    0.0000 C=    0.0000
 XYZ=    6.4900   10.2944   23.8798 Q=    0.4170 A=    0.0000 R=    0.0000 C=    0.0000
 XYZ=   27.2473   19.6693   21.2441 Q=   -0.8340 A=    0.0000 R=    0.0000 C=    0.0000
 XYZ=   26.3613   19.4872   21.5572 Q=    0.4170 A=    0.0000 R=    0.0000 C=    0.0000
 XYZ=   27.6050   18.8096   21.0225 Q=    0.4170 A=    0.0000 R=    0.0000 C=    0.0000
 XYZ=   20.5695   27.0495   22.1904 Q=   -0.8340 A=    0.0000 R=    0.0000 C=    0.0000
 XYZ=   21.1419   26.6671   22.8556 Q=    0.4170 A=    0.0000 R=    0.0000 C=    0.0000
 XYZ=   19.8595   27.4542   22.6888 Q=    0.4170 A=    0.0000 R=    0.0000 C=    0.0000
 XYZ=   11.4850   21.9652   28.5787 Q=   -0.8340 A=    0.0000 R=    0.0000 C=    0.0000
 XYZ=   11.1786   22.6551   27.9902 Q=    0.4170 A=    0.0000 R=    0.0000 C=    0.0000
 XYZ=   11.5594   22.3929   29.4318 Q=    0.4170 A=    0.0000 R=    0.0000 C=    0.0000
 XYZ=   15.7738    3.2133   20.3445 Q=   -0.8340 A=    0.0000 R=    0.0000 C=    0.0000
 XYZ=   15.0307    3.4486   20.9001 Q=    0.4170 A=    0.0000 R=    0.0000 C=    0.0000
 XYZ=   16.2705    2.5805   20.8632 Q=    0.4170 A=    0.0000 R=    0.0000 C=    0.0000
 XYZ=   30.7486   13.1761   16.8301 Q=   -0.8340 A=    0.0000 R=    0.0000 C=    0.0000
 XYZ=   30.8927   13.2918   15.8910 Q=    0.4170 A=    0.0000 R=    0.0000 C=    0.0000
 XYZ=   31.0463   13.9974   17.2216 Q=    0.4170 A=    0.0000 R=    0.0000 C=    0.0000
 XYZ=   19.5012   26.4316   24.8748 Q=   -0.8340 A=    0.0000 R=    0.0000 C=    0.0000
 XYZ=   19.6826   25.4957   24.9616 Q=    0.4170 A=    0.0000 R=    0.0000 C=    0.0000
 XYZ=   18.5520   26.4827   24.7624 Q=    0.4170 A=    0.0000 R=    0.0000 C=    0.0000
 XYZ=   23.0751    7.1387    7.3818 Q=   -0.8340 A=    0.0000 R=    0.0000 C=    0.0000
 XYZ=   23.7833    7.6955    7.7053 Q=    0.4170 A=    0.0000 R=    0.0000 C=    0.0000
 XYZ=   23.0716    6.3866    7.9739 Q=    0.4170 A=    0.0000 R=    0.0000 C=    0.0000
 XYZ=   22.4083   29.0752   20.7528 Q=   -0.8340 A=    0.0000 R=    0.0000 C=    0.0000
 XYZ=   22.1853   28.1485   20.6651 Q=    0.4170 A=    0.0000 R=    0.0000 C=    0.0000
 XYZ=   21.5823   29.5000   20.9842 Q=    0.4170 A=    0.0000 R=    0.0000 C=    0.0000
 XYZ=   11.1658   14.3833    9.0869 Q=   -0.8340 A=    0.0000 R=    0.0000 C=    0.0000
 XYZ=   11.8117   14.1246    8.4296 Q=    0.4170 A=    0.0000 R=    0.0000 C=    0.0000
 XYZ=   10.8640   13.5573    9.4649 Q=    0.4170 A=    0.0000 R=    0.0000 C=    0.0000
 XYZ=   12.2800    3.1320   16.8226 Q=   -0.8340 A=    0.0000 R=    0.0000 C=    0.0000
 XYZ=   12.0063    3.6542   17.5767 Q=    0.4170 A=    0.0000 R=    0.0000 C=    0.0000
 XYZ=   12.4001    3.7703   16.1195 Q=    0.4170 A=    0.0000 R=    0.0000 C=    0.0000
 XYZ=    9.7663    6.8609   26.1959 Q=   -0.8340 A=    0.0000 R=    0.0000 C=    0.0000
 XYZ=   10.6630    7.1702   26.0678 Q=    0.4170 A=    0.0000 R=    0.0000 C=    0.0000
 XYZ=    9.3261    7.5813   26.6470 Q=    0.4170 A=    0.0000 R=    0.0000 C=    0.0000
 XYZ=   26.5543   19.8133   27.1236 Q=   -0.8340 A=    0.0000 R=    0.0000 C=    0.0000
 XYZ=   27.4963   19.8233   27.2930 Q=    0.4170 A=    0.0000 R=    0.0000 C=    0.0000
 XYZ=   26.1539   19.8344   27.9928 Q=    0.4170 A=    0.0000 R=    0.0000 C=    0.0000
 XYZ=   19.5828   28.1417    9.5462 Q=   -0.8340 A=    0.0000 R=    0.0000 C=    0.0000
 XYZ=   19.6464   27.5527   10.2980 Q=    0.4170 A=    0.0000 R=    0.0000 C=    0.0000
 XYZ=   20.4912   28.3095    9.2952 Q=    0.4170 A=    0.0000 R=    0.0000 C=    0.0000
 XYZ=   23.3666   20.0331    2.8166 Q=   -0.8340 A=    0.0000 R=    0.0000 C=    0.0000
 XYZ=   23.1032   19.4191    2.1313 Q=    0.4170 A=    0.0000 R=    0.0000 C=    0.0000
 XYZ=   23.3072   19.5278    3.6274 Q=    0.4170 A=    0.0000 R=    0.0000 C=    0.0000
 XYZ=   14.5305   11.4720   26.8803 Q=   -0.8340 A=    0.0000 R=    0.0000 C=    0.0000
 XYZ=   15.4508   11.7298   26.9322 Q=    0.4170 A=    0.0000 R=    0.0000 C=    0.0000
 XYZ=   14.5224   10.5546   27.1532 Q=    0.4170 A=    0.0000 R=    0.0000 C=    0.0000
 XYZ=   27.8296    8.5892   15.9786 Q=   -0.8340 A=    0.0000 R=    0.0000 C=    0.0000
 XYZ=   27.8461    9.4054   16.4784 Q=    0.4170 A=    0.0000 R=    0.0000 C=    0.0000
 XYZ=   28.7235    8.2523   16.0397 Q=    0.4170 A=    0.0000 R=    0.0000 C=    0.0000
 XYZ=   12.4154   11.7566    4.4794 Q=   -0.8340 A=    0.0000 R=    0.0000 C=    0.0000
 XYZ=   12.8091   12.6291    4.4716 Q=    0.4170 A=    0.0000 R=    0.0000 C=    0.0000
 XYZ=   11.7432   11.7905    3.7988 Q=    0.4170 A=    0.0000 R=    0.0000 C=    0.0000
 XYZ=   23.8850    9.6228    9.2850 Q=   -0.8340 A=    0.0000 R=    0.0000 C=    0.0000
 XYZ=   23.2813    9.1049    9.8175 Q=    0.4170 A=    0.0000 R=    0.0000 C=    0.0000
 XYZ=   23.4399   10.4616    9.1647 Q=    0.4170 A=    0.0000 R=    0.0000 C=    0.0000
 XYZ=   27.5286   23.8068    9.6283 Q=   -0.8340 A=    0.0000 R=    0.0000 C=    0.0000
 XYZ=   28.3983   24.1352    9.3998 Q=    0.4170 A=    0.0000 R=    0.0000 C=    0.0000
 XYZ=   27.6502   22.8642    9.7417 Q=    0.4170 A=    0.0000 R=    0.0000 C=    0.0000
 XYZ=    6.5823   18.9879    8.8117 Q=   -0.8340 A=    0.0000 R=    0.0000 C=    0.0000
 XYZ=    6.6703   19.9376    8.7308 Q=    0.4170 A=    0.0000 R=    0.0000 C=    0.0000
 XYZ=    5.6582   18.8163    8.6305 Q=    0.4170 A=    0.0000 R=    0.0000 C=    0.0000
 XYZ=   22.9657    9.4219    5.4581 Q=   -0.8340 A=    0.0000 R=    0.0000 C=    0.0000
 XYZ=   22.6495    8.7679    6.0814 Q=    0.4170 A=    0.0000 R=    0.0000 C=    0.0000
 XYZ=   22.2203    9.5817    4.8792 Q=    0.4170 A=    0.0000 R=    0.0000 C=    0.0000
 XYZ=   10.1522    6.5542   20.0695 Q=   -0.8340 A=    0.0000 R=    0.0000 C=    0.0000
 XYZ=    9.9429    7.2149   20.7296 Q=    0.4170 A=    0.0000 R=    0.0000 C=    0.0000
 XYZ=    9.9343    5.7207   20.4867 Q=    0.4170 A=    0.0000 R=    0.0000 C=    0.0000
 XYZ=   21.5982   25.4852   10.1801 Q=   -0.8340 A=    0.0000 R=    0.0000 C=    0.0000
 XYZ=   22.2192   25.6727    9.4762 Q=    0.4170 A=    0.0000 R=    0.0000 C=    0.0000
 XYZ=   20.9537   24.9001    9.7820 Q=    0.4170 A=    0.0000 R=    0.0000 C=    0.0000
 XYZ=   29.0401   20.1025   12.0389 Q=   -0.8340 A=    0.0000 R=    0.0000 C=    0.0000
 XYZ=   28.4626   19.3674   12.2445 Q=    0.4170 A=    0.0000 R=    0.0000 C=    0.0000
 XYZ=   29.9117   19.8025   12.2970 Q=    0.4170 A=    0.0000 R=    0.0000 C=    0.0000
 XYZ=   11.1427   13.7734   23.3769 Q=   -0.8340 A=    0.0000 R=    0.0000 C=    0.0000
 XYZ=   11.2388   13.1240   24.0735 Q=    0.4170 A=    0.0000 R=    0.0000 C=    0.0000
 XYZ=   12.0402   14.0170   23.1504 Q=    0.4170 A=    0.0000 R=    0.0000 C=    0.0000
 XYZ=    9.8157    6.3425   13.2663 Q=   -0.8340 A=    0.0000 R=    0.0000 C=    0.0000
 XYZ=   10.5545    6.7537   12.8177 Q=    0.4170 A=    0.0000 R=    0.0000 C=    0.0000
 XYZ=    9.0756    6.4648   12.6717 Q=    0.4170 A=    0.0000 R=    0.0000 C=    0.0000
 XYZ=   17.3074    3.0604   14.1058 Q=   -0.8340 A=    0.0000 R=    0.0000 C=    0.0000
 XYZ=   17.2349    2.1431   14.3692 Q=    0.4170 A=    0.0000 R=    0.0000 C=    0.0000
 XYZ=   16.4830    3.4569   14.3876 Q=    0.4170 A=    0.0000 R=    0.0000 C=    0.0000
 XYZ=   13.9614   26.7054    9.0510 Q=   -0.8340 A=    0.0000 R=    0.0000 C=    0.0000
 XYZ=   13.3753   25.9489    9.0340 Q=    0.4170 A=    0.0000 R=    0.0000 C=    0.0000
 XYZ=   13.4252   27.4316    8.7325 Q=    0.4170 A=    0.0000 R=    0.0000 C=    0.0000
 XYZ=   18.1689   21.4229   22.4584 Q=   -0.8340 A=    0.0000 R=    0.0000 C=    0.0000
 XYZ=   17.4821   20.8438   22.1281 Q=    0.4170 A=    0.0000 R=    0.0000 C=    0.0000
 XYZ=   18.6975   20.8664   23.0304 Q=    0.4170 A=    0.0000 R=    0.0000 C=    0.0000
 XYZ=   25.9189   17.4071   18.3988 Q=   -0.8340 A=    0.0000 R=    0.0000 C=    0.0000
 XYZ=   26.1000   16.7124   17.7657 Q=    0.4170 A=    0.0000 R=    0.0000 C=    0.0000
 XYZ=   25.6941   16.9438   19.2057 Q=    0.4170 A=    0.0000 R=    0.0000 C=    0.0000
 XYZ=   17.8341   27.3243    7.2991 Q=   -0.8340 A=    0.0000 R=    0.0000 C=    0.0000
 XYZ=   18.4440   27.5215    8.0100 Q=    0.4170 A=    0.0000 R=    0.0000 C=    0.0000
 XYZ=   18.2306   27.7239    6.5249 Q=    0.4170 A=    0.0000 R=    0.0000 C=    0.0000
 XYZ=   23.2262    5.4274    9.5805 Q=   -0.8340 A=    0.0000 R=    0.0000 C=    0.0000
 XYZ=   23.6078    4.5541    9.6694 Q=    0.4170 A=    0.0000 R=    0.0000 C=    0.0000
 XYZ=   22.3667    5.3571    9.9959 Q=    0.4170 A=    0.0000 R=    0.0000 C=    0.0000
 XYZ=    3.2556    9.1196   18.6145 Q=   -0.8340 A=    0.0000 R=    0.0000 C=    0.0000
 XYZ=    3.7328    9.0681   19.4427 Q=    0.4170 A=    0.0000 R=    0.0000 C=    0.0000
 XYZ=    3.3596   10.0287   18.3338 Q=    0.4170 A=    0.0000 R=    0.0000 C=    0.0000
 XYZ=   11.8986   27.9701   21.6910 Q=   -0.8340 A=    0.0000 R=    0.0000 C=    0.0000
 XYZ=   11.6056   28.6841   22.2572 Q=    0.4170 A=    0.0000 R=    0.0000 C=    0.0000
 XYZ=   11.8132   28.3175   20.8031 Q=    0.4170 A=    0.0000 R=    0.0000 C=    0.0000
 XYZ=   18.7290   18.3162    4.8540 Q=   -0.8340 A=    0.0000 R=    0.0000 C=    0.0000
 XYZ=   17.8295   18.0407    4.6770 Q=    0.4170 A=    0.0000 R=    0.0000 C=    0.0000
 XYZ=   19.1102   17.5891    5.3463 Q=    0.4170 A=    0.0000 R=    0.0000 C=    0.0000
 XYZ=    8.1612   12.4883   24.4999 Q=   -0.8340 A=    0.0000 R=    0.0000 C=    0.0000
 XYZ=    7.3286   12.8950   24.7397 Q=    0.4170 A=    0.0000 R=    0.0000 C=    0.0000
 XYZ=    8.7120   13.2182   24.2167 Q=    0.4170 A=    0.0000 R=    0.0000 C=    0.0000
 XYZ=   14.9247   31.3240   13.6224 Q=   -0.8340 A=    0.0000 R=    0.0000 C=    0.0000
 XYZ=   14.6129   30.4517   13.8637 Q=    0.4170 A=    0.0000 R=    0.0000 C=    0.0000
 XYZ=   14.1609   31.7540   13.2377 Q=    0.4170 A=    0.0000 R=    0.0000 C=    0.0000
 XYZ=   13.9813   13.8590   23.8544 Q=   -0.8340 A=    0.0000 R=    0.0000 C=    0.0000
 XYZ=   14.4897   14.2034   23.1201 Q=    0.4170 A=    0.0000 R=    0.0000 C=    0.0000
 XYZ=   14.4102   14.2165   24.6318 Q=    0.4170 A=    0.0000 R=    0.0000 C=    0.0000
 XYZ=   26.7558   12.0480   16.2233 Q=   -0.8340 A=    0.0000 R=    0.0000 C=    0.0000
 XYZ=   27.1303   12.5235   15.4817 Q=    0.4170 A=    0.0000 R=    0.0000 C=    0.0000
 XYZ=   25.8522   11.8697   15.9626 Q=    0.4170 A=    0.0000 R=    0.0000 C=    0.0000
 XYZ=   23.9984   26.8390    8.8658 Q=   -0.8340 A=    0.0000 R=    0.0000 C=    0.0000
 XYZ=   23.2926   27.4847    8.8311 Q=    0.4170 A=    0.0000 R=    0.0000 C=    0.0000
 XYZ=   24.7736   27.3144    8.5670 Q=    0.4170 A=    0.0000 R=    0.0000 C=    0.0000
 XYZ=    8.9204   17.8384   16.4433 Q=   -0.8340 A=    0.0000 R=    0.0000 C=    0.0000
 XYZ=    8.3764   17.0933   16.6985 Q=    0.4170 A=    0.0000 R=    0.0000 C=    0.0000
 XYZ=    9.5640   17.4695   15.8384 Q=    0.4170 A=    0.0000 R=    0.0000 C=    0.0000
 XYZ=   14.2903   30.2696   22.0769 Q=   -0.8340 A=    0.0000 R=    0.0000 C=    0.0000
 XYZ=   14.4736   30.9744   21.4556 Q=    0.4170 A=    0.0000 R=    0.0000 C=    0.0000
 XYZ=   13.8985   29.5768   21.5451 Q=    0.4170 A=    0.0000 R=    0.0000 C=    0.0000
 XYZ=   26.4367   11.0634    9.4590 Q=   -0.8340 A=    0.0000 R=    0.0000 C=    0.0000
 XYZ=   27.0032   10.2926    9.4251 Q=    0.4170 A=    0.0000 R=    0.0000 C=    0.0000
 XYZ=   25.5810   10.7452    9.1711 Q=    0.4170 A=    0.0000 R=    0.0000 C=    0.0000
 XYZ=    8.0579   15.1069    5.3095 Q=   -0.8340 A=    0.0000 R=    0.0000 C=    0.0000
 XYZ=    7.6699   14.2828    5.6037 Q=    0.4170 A=    0.0000 R=    0.0000 C=    0.0000
 XYZ=    8.3436   15.5386    6.1147 Q=    0.4170 A=    0.0000 R=    0.0000 C=    0.0000
 XYZ=   19.9857   23.4385   21.7945 Q=   -0.8340 A=    0.0000 R=    0.0000 C=    0.0000
 XYZ=   19.1686   22.9406   21.8211 Q=    0.4170 A=    0.0000 R=    0.0000 C=    0.0000
 XYZ=   20.5668   22.9168   21.2410 Q=    0.4170 A=    0.0000 R=    0.0000 C=    0.0000
 XYZ=   28.7592   11.1634   12.6033 Q=   -0.8340 A=    0.0000 R=    0.0000 C=    0.0000
 XYZ=   27.9627   10.6805   12.8238 Q=    0.4170 A=    0.0000 R=    0.0000 C=    0.0000
 XYZ=   28.9295   10.9403   11.6882 Q=    0.4170 A=    0.0000 R=    0.0000 C=    0.0000
 XYZ=   25.8445   26.9485   12.7843 Q=   -0.8340 A=    0.0000 R=    0.0000 C=    0.0000
 XYZ=   26.0446   26.7035   11.8808 Q=    0.4170 A=    0.0000 R=    0.0000 C=    0.0000
 XYZ=   26.3072   26.3013   13.3165 Q=    0.4170 A=    0.0000 R=    0.0000 C=    0.0000
 XYZ=   11.9574   23.6673   15.1098 Q=   -0.8340 A=    0.0000 R=    0.0000 C=    0.0000
 XYZ=   11.6633   23.7915   14.2074 Q=    0.4170 A=    0.0000 R=    0.0000 C=    0.0000
 XYZ=   12.1717   22.7361   15.1663 Q=    0.4170 A=    0.0000 R=    0.0000 C=    0.0000
 XYZ=   13.4152   20.6782    8.6939 Q=   -0.8340 A=    0.0000 R=    0.0000 C=    0.0000
 XYZ=   13.9559   21.3995    8.3723 Q=    0.4170 A=    0.0000 R=    0.0000 C=    0.0000
 XYZ=   13.0537   20.2781    7.9031 Q=    0.4170 A=    0.0000 R=    0.0000 C=    0.0000
 XYZ=    6.6564    7.4025   12.6337 Q=   -0.8340 A=    0.0000 R=    0.0000 C=    0.0000
 XYZ=    5.9585    7.8635   12.1683 Q=    0.4170 A=    0.0000 R=    0.0000 C=    0.0000
 XYZ=    6.2091    6.9472   13.3470 Q=    0.4170 A=    0.0000 R=    0.0000 C=    0.0000
 XYZ=   17.9601    9.1078   15.7876 Q=   -0.8340 A=    0.0000 R=    0.0000 C=    0.0000
 XYZ=   17.8396    8.6636   16.6269 Q=    0.4170 A=    0.0000 R=    0.0000 C=    0.0000
 XYZ=   17.9616   10.0395   16.0071 Q=    0.4170 A=    0.0000 R=    0.0000 C=    0.0000
 XYZ=   11.4727   20.3214   12.8422 Q=   -0.8340 A=    0.0000 R=    0.0000 C=    0.0000
 XYZ=   12.2159   20.6409   12.3306 Q=    0.4170 A=    0.0000 R=    0.0000 C=    0.0000
 XYZ=   11.3296   19.4293   12.5261 Q=    0.4170 A=    0.0000 R=    0.0000 C=    0.0000
 XYZ=   22.6207   18.8270   19.6657 Q=   -0.8340 A=    0.0000 R=    0.0000 C=    0.0000
 XYZ=   21.8588   18.6496   19.1140 Q=    0.4170 A=    0.0000 R=    0.0000 C=    0.0000
 XYZ=   23.2278   19.2956   19.0929 Q=    0.4170 A=    0.0000 R=    0.0000 C=    0.0000
 XYZ=    2.5233   16.1825   17.7534 Q=   -0.8340 A=    0.0000 R=    0.0000 C=    0.0000
 XYZ=    2.3292   15.7078   18.5616 Q=    0.4170 A=    0.0000 R=    0.0000 C=    0.0000
 XYZ=    2.7431   15.4989   17.1204 Q=    0.4170 A=    0.0000 R=    0.0000 C=    0.0000
 XYZ=   17.4242    9.4158    5.1841 Q=   -0.8340 A=    0.0000 R=    0.0000 C=    0.0000
 XYZ=   16.5015    9.1745    5.2655 Q=    0.4170 A=    0.0000 R=    0.0000 C=    0.0000
 XYZ=   17.8028    9.2087    6.0385 Q=    0.4170 A=    0.0000 R=    0.0000 C=    0.0000
 XYZ=    7.1467   23.9801   15.8472 Q=   -0.8340 A=    0.0000 R=    0.0000 C=    0.0000
 XYZ=    6.7410   23.3554   16.4484 Q=    0.4170 A=    0.0000 R=    0.0000 C=    0.0000
 XYZ=    7.9737   24.2155   16.2677 Q=    0.4170 A=    0.0000 R=    0.0000 C=    0.0000
 XYZ=   26.6214   15.0999   24.8572 Q=   -0.8340 A=    0.0000 R=    0.0000 C=    0.0000
 XYZ=   26.3665   14.3271   25.3613 Q=    0.4170 A=    0.0000 R=    0.0000 C=    0.0000
 XYZ=   25.7925   15.4882   24.5775 Q=    0.4170 A=    0.0000 R=    0.0000 C=    0.0000
 XYZ=    6.8288    8.0965   16.8263 Q=   -0.8340 A=    0.0000 R=    0.0000 C=    0.0000
 XYZ=    7.7576    7.9190   16.6781 Q=    0.4170 A=    0.0000 R=    0.0000 C=    0.0000
 XYZ=    6.6766    7.8357   17.7346 Q=    0.4170 A=    0.0000 R=    0.0000 C=    0.0000
 XYZ=   10.9319   16.9582    8.7335 Q=   -0.8340 A=    0.0000 R=    0.0000 C=    0.0000
 XYZ=   11.4396   17.1314    7.9407 Q=    0.4170 A=    0.0000 R=    0.0000 C=    0.0000
 XYZ=   10.9609   16.0067    8.8339 Q=    0.4170 A=    0.0000 R=    0.0000 C=    0.0000
 XYZ=   12.6547   14.7127    3.7927 Q=   -0.8340 A=    0.0000 R=    0.0000 C=    0.0000
 XYZ=   12.8448   14.8058    2.8592 Q=    0.4170 A=    0.0000 R=    0.0000 C=    0.0000
 XYZ=   13.3704   15.1736    4.2305 Q=    0.4170 A=    0.0000 R=    0.0000 C=    0.0000
 XYZ=    8.4927    7.1113   10.3730 Q=   -0.8340 A=    0.0000 R=    0.0000 C=    0.0000
 XYZ=    8.8202    8.0008   10.2401 Q=    0.4170 A=    0.0000 R=    0.0000 C=    0.0000
 XYZ=    7.8370    7.1978   11.0649 Q=    0.4170 A=    0.0000 R=    0.0000 C=    0.0000
 XYZ=   13.8782    7.2123   21.6119 Q=   -0.8340 A=    0.0000 R=    0.0000 C=    0.0000
 XYZ=   13.9944    7.1845   22.5616 Q=    0.4170 A=    0.0000 R=    0.0000 C=    0.0000
 XYZ=   13.4123    8.0328   21.4510 Q=    0.4170 A=    0.0000 R=    0.0000 C=    0.0000
 XYZ=   21.0766    8.8233   25.0538 Q=   -0.8340 A=    0.0000 R=    0.0000 C=    0.0000
 XYZ=   20.6926    9.0346   24.2029 Q=    0.4170 A=    0.0000 R=    0.0000 C=    0.0000
 XYZ=   20.4004    8.3163   25.5031 Q=    0.4170 A=    0.0000 R=    0.0000 C=    0.0000
 XYZ=   19.5512   28.9736   19.0080 Q=   -0.8340 A=    0.0000 R=    0.0000 C=    0.0000
 XYZ=   19.7285   29.4443   19.8224 Q=    0.4170 A=    0.0000 R=    0.0000 C=    0.0000
 XYZ=   19.5890   29.6469   18.3286 Q=    0.4170 A=    0.0000 R=    0.0000 C=    0.0000
 XYZ=   16.2671   22.9690   23.7746 Q=   -0.8340 A=    0.0000 R=    0.0000 C=    0.0000
 XYZ=   16.8648   22.3881   23.3040 Q=    0.4170 A=    0.0000 R=    0.0000 C=    0.0000
 XYZ=   16.5962   22.9748   24.6734 Q=    0.4170 A=    0.0000 R=    0.0000 C=    0.0000
 XYZ=   17.1114   25.2002   27.8611 Q=   -0.8340 A=    0.0000 R=    0.0000 C=    0.0000
 XYZ=   16.3589   24.6161   27.9551 Q=    0.4170 A=    0.0000 R=    0.0000 C=    0.0000
 XYZ=   16.7566   25.9826   27.4389 Q=    0.4170 A=    0.0000 R=    0.0000 C=    0.0000
 XYZ=   13.9938   20.4517   11.4955 Q=   -0.8340 A=    0.0000 R=    0.0000 C=    0.0000
 XYZ=   14.0312   20.4515   10.5390 Q=    0.4170 A=    0.0000 R=    0.0000 C=    0.0000
 XYZ=   14.5514   19.7191   11.7575 Q=    0.4170 A=    0.0000 R=    0.0000 C=    0.0000
 XYZ=    9.6098    5.1999    8.9797 Q=   -0.8340 A=    0.0000 R=    0.0000 C=    0.0000
 XYZ=    9.2036    4.3899    9.2882 Q=    0.4170 A=    0.0000 R=    0.0000 C=    0.0000
 XYZ=    9.1173    5.8961    9.4143 Q=    0.4170 A=    0.0000 R=    0.0000 C=    0.0000
 XYZ=   17.7672   18.2124   10.9257 Q=   -0.8340 A=    0.0000 R=    0.0000 C=    0.0000
 XYZ=   17.5964   18.9675   10.3628 Q=    0.4170 A=    0.0000 R=    0.0000 C=    0.0000
 XYZ=   17.0508   18.2194   11.5606 Q=    0.4170 A=    0.0000 R=    0.0000 C=    0.0000
 XYZ=   21.9204   11.8793    9.4644 Q=   -0.8340 A=    0.0000 R=    0.0000 C=    0.0000
 XYZ=   21.0740   12.0537    9.0528 Q=    0.4170 A=    0.0000 R=    0.0000 C=    0.0000
 XYZ=   21.7835   12.0816   10.3899 Q=    0.4170 A=    0.0000 R=    0.0000 C=    0.0000
 XYZ=   26.5956   13.6789   18.3948 Q=   -0.8340 A=    0.0000 R=    0.0000 C=    0.0000
 XYZ=   26.1671   14.4620   18.0495 Q=    0.4170 A=    0.0000 R=    0.0000 C=    0.0000
 XYZ=   26.6379   13.0800   17.6492 Q=    0.4170 A=    0.0000 R=    0.0000 C=    0.0000
 XYZ=   18.5032   14.0403    4.3243 Q=   -0.8340 A=    0.0000 R=    0.0000 C=    0.0000
 XYZ=   18.3768   14.6611    5.0418 Q=    0.4170 A=    0.0000 R=    0.0000 C=    0.0000
 XYZ=   19.1745   13.4374    4.6440 Q=    0.4170 A=    0.0000 R=    0.0000 C=    0.0000
 XYZ=    3.5374   20.4479   18.5507 Q=   -0.8340 A=    0.0000 R=    0.0000 C=    0.0000
 XYZ=    3.4365   20.0814   19.4292 Q=    0.4170 A=    0.0000 R=    0.0000 C=    0.0000
 XYZ=    2.7892   21.0361   18.4487 Q=    0.4170 A=    0.0000 R=    0.0000 C=    0.0000
 XYZ=   16.6059   21.4963    6.0426 Q=   -0.8340 A=    0.0000 R=    0.0000 C=    0.0000
 XYZ=   16.0295   21.5405    6.8056 Q=    0.4170 A=    0.0000 R=    0.0000 C=    0.0000
 XYZ=   16.2767   22.1753    5.4536 Q=    0.4170 A=    0.0000 R=    0.0000 C=    0.0000
 XYZ=    7.7584   23.5715   12.5291 Q=   -0.8340 A=    0.0000 R=    0.0000 C=    0.0000
 XYZ=    6.8420   23.3072   12.6092 Q=    0.4170 A=    0.0000 R=    0.0000 C=    0.0000
 XYZ=    8.2545   22.7673   12.6820 Q=    0.4170 A=    0.0000 R=    0.0000 C=    0.0000
 XYZ=   20.0234    8.5898   19.6325 Q=   -0.8340 A=    0.0000 R=    0.0000 C=    0.0000
 XYZ=   19.4947    8.6531   18.8371 Q=    0.4170 A=    0.0000 R=    0.0000 C=    0.0000
 XYZ=   20.7110    9.2456   19.5165 Q=    0.4170 A=    0.0000 R=    0.0000 C=    0.0000
 XYZ=   15.4349   12.5766    4.8081 Q=   -0.8340 A=    0.0000 R=    0.0000 C=    0.0000
 XYZ=   16.1009   12.8539    4.1790 Q=    0.4170 A=    0.0000 R=    0.0000 C=    0.0000
 XYZ=   14.9774   11.8577    4.3721 Q=    0.4170 A=    0.0000 R=    0.0000 C=    0.0000
 XYZ=   16.7251   11.7871   30.1390 Q=   -0.8340 A=    0.0000 R=    0.0000 C=    0.0000
 XYZ=   16.7180   12.1964   29.2737 Q=    0.4170 A=    0.0000 R=    0.0000 C=    0.0000
 XYZ=   15.8327   11.9011   30.4657 Q=    0.4170 A=    0.0000 R=    0.0000 C=    0.0000
 XYZ=    4.4326   16.7996   10.6415 Q=   -0.8340 A=    0.0000 R=    0.0000 C=    0.0000
 XYZ=    5.3301   16.7082   10.9613 Q=    0.4170 A=    0.0000 R=    0.0000 C=    0.0000
 XYZ=    3.9818   17.2908   11.3284 Q=    0.4170 A=    0.0000 R=    0.0000 C=    0.0000
 XYZ=   15.4438   18.7235   24.3992 Q=   -0.8340 A=    0.0000 R=    0.0000 C=    0.0000
 XYZ=   15.5339   18.3293   23.5317 Q=    0.4170 A=    0.0000 R=    0.0000 C=    0.0000
 XYZ=   16.3266   18.6960   24.7682 Q=    0.4170 A=    0.0000 R=    0.0000 C=    0.0000
 XYZ=   14.7297    3.7426   23.8747 Q=   -0.8340 A=    0.0000 R=    0.0000 C=    0.0000
 XYZ=   14.1432    3.8274   23.1231 Q=    0.4170 A=    0.0000 R=    0.0000 C=    0.0000
 XYZ=   14.1444    3.6599   24.6277 Q=    0.4170 A=    0.0000 R=    0.0000 C=    0.0000
 XYZ=   22.3021   12.8337   27.6422 Q=   -0.8340 A=    0.0000 R=    0.0000 C=    0.0000
 XYZ=   22.6444   12.5161   28.4777 Q=    0.4170 A=    0.0000 R=    0.0000 C=    0.0000
 XYZ=   21.7229   12.1346   27.3388 Q=    0.4170 A=    0.0000 R=    0.0000 C=    0.0000
 XYZ=   16.7242   19.7629   28.5112 Q=   -0.8340 A=    0.0000 R=    0.0000 C=    0.0000
 XYZ=   17.4709   19.2228   28.2524 Q=    0.4170 A=    0.0000 R=    0.0000 C=    0.0000
 XYZ=   15.9865   19.4050   28.0173 Q=    0.4170 A=    0.0000 R=    0.0000 C=    0.0000
 XYZ=    9.4567   16.2793   26.1702 Q=   -0.8340 A=    0.0000 R=    0.0000 C=    0.0000
 XYZ=    8.9146   16.3857   25.3885 Q=    0.4170 A=    0.0000 R=    0.0000 C=    0.0000
 XYZ=    8.9755   16.7363   26.8600 Q=    0.4170 A=    0.0000 R=    0.0000 C=    0.0000
 XYZ=   17.5095   30.0868   12.9142 Q=   -0.8340 A=    0.0000 R=    0.0000 C=    0.0000
 XYZ=   16.6531   30.5048   13.0038 Q=    0.4170 A=    0.0000 R=    0.0000 C=    0.0000
 XYZ=   17.3160   29.2147   12.5702 Q=    0.4170 A=    0.0000 R=    0.0000 C=    0.0000
 XYZ=   26.6935    6.1125   18.2397 Q=   -0.8340 A=    0.0000 R=    0.0000 C=    0.0000
 XYZ=   26.7858    7.0486   18.4169 Q=    0.4170 A=    0.0000 R=    0.0000 C=    0.0000
 XYZ=   26.3390    6.0702   17.3516 Q=    0.4170 A=    0.0000 R=    0.0000 C=    0.0000
 XYZ=   27.9620   14.2162    7.8866 Q=   -0.8340 A=    0.0000 R=    0.0000 C=    0.0000
 XYZ=   28.5204   14.9908    7.9543 Q=    0.4170 A=    0.0000 R=    0.0000 C=    0.0000
 XYZ=   28.5489   13.5230    7.5847 Q=    0.4170 A=    0.0000 R=    0.0000 C=    0.0000
 XYZ=   22.1100   29.1416   13.4160 Q=   -0.8340 A=    0.0000 R=    0.0000 C=    0.0000
 XYZ=   21.5469   29.6794   12.8593 Q=    0.4170 A=    0.0000 R=    0.0000 C=    0.0000
 XYZ=   22.6809   29.7699   13.8582 Q=    0.4170 A=    0.0000 R=    0.0000 C=    0.0000
 XYZ=   21.7511   24.7277   14.4752 Q=   -0.8340 A=    0.0000 R=    0.0000 C=    0.0000
 XYZ=   21.6753   25.6752   14.5883 Q=    0.4170 A=    0.0000 R=    0.0000 C=    0.0000
 XYZ=   22.4423   24.6186   13.8220 Q=    0.4170 A=    0.0000 R=    0.0000 C=    0.0000
 XYZ=   22.5345   12.6097   24.0126 Q=   -0.8340 A=    0.0000 R=    0.0000 C=    0.0000
 XYZ=   23.0978   12.8800   24.7377 Q=    0.4170 A=    0.0000 R=    0.0000 C=    0.0000
 XYZ=   22.5669   11.6532   24.0272 Q=    0.4170 A=    0.0000 R=    0.0000 C=    0.0000
 XYZ=   22.2462   16.7430   13.0362 Q=   -0.8340 A=    0.0000 R=    0.0000 C=    0.0000
 XYZ=   21.7787   15.9101   13.0996 Q=    0.4170 A=    0.0000 R=    0.0000 C=    0.0000
 XYZ=   22.8170   16.7569   13.8044 Q=    0.4170 A=    0.0000 R=    0.0000 C=    0.0000
 XYZ=   20.3786   18.7867    2.2174 Q=   -0.8340 A=    0.0000 R=    0.0000 C=    0.0000
 XYZ=   20.8650   18.0367    2.5596 Q=    0.4170 A=    0.0000 R=    0.0000 C=    0.0000
 XYZ=   19.7282   18.9793    2.8927 Q=    0.4170 A=    0.0000 R=    0.0000 C=    0.0000
 XYZ=    2.7582   15.0218    9.6370 Q=   -0.8340 A=    0.0000 R=    0.0000 C=    0.0000
 XYZ=    2.1067   15.6873    9.4159 Q=    0.4170 A=    0.0000 R=    0.0000 C=    0.0000
 XYZ=    3.4913   15.5161   10.0038 Q=    0.4170 A=    0.0000 R=    0.0000 C=    0.0000
 XYZ=   20.4864   17.1580    6.8586 Q=   -0.8340 A=    0.0000 R=    0.0000 C=    0.0000
 XYZ=   21.1549   16.4917    6.6988 Q=    0.4170 A=    0.0000 R=    0.0000 C=    0.0000
 XYZ=   20.4421   17.2297    7.8120 Q=    0.4170 A=    0.0000 R=    0.0000 C=    0.0000
 XYZ=   24.6410   10.9436   19.1976 Q=   -0.8340 A=    0.0000 R=    0.0000 C=    0.0000
 XYZ=   25.4422   10.6806   19.6505 Q=    0.4170 A=    0.0000 R=    0.0000 C=    0.0000
 XYZ=   24.3927   10.1754   18.6834 Q=    0.4170 A=    0.0000 R=    0.0000 C=    0.0000
 XYZ=   21.1350    3.4428   21.5614 Q=   -0.8340 A=    0.0000 R=    0.0000 C=    0.0000
 XYZ=   21.2136    3.1726   20.6464 Q=    0.4170 A=    0.0000 R=    0.0000 C=    0.0000
 XYZ=   20.3039    3.0673   21.8520 Q=    0.4170 A=    0.0000 R=    0.0000 C=    0.0000
 XYZ=    8.8296   21.1069   12.9915 Q=   -0.8340 A=    0.0000 R=    0.0000 C=    0.0000
 XYZ=    8.7403   21.0406   13.9422 Q=    0.4170 A=    0.0000 R=    0.0000 C=    0.0000
 XYZ=    9.7176   20.7982   12.8117 Q=    0.4170 A=    0.0000 R=    0.0000 C=    0.0000
 XYZ=    9.3843   21.1031    7.7143 Q=   -0.8340 A=    0.0000 R=    0.0000 C=    0.0000
 XYZ=    9.1934   21.6709    6.9676 Q=    0.4170 A=    0.0000 R=    0.0000 C=    0.0000
 XYZ=    8.6184   21.1878    8.2821 Q=    0.4170 A=    0.0000 R=    0.0000 C=    0.0000
 XYZ=   14.9857   28.4860   19.3654 Q=   -0.8340 A=    0.0000 R=    0.0000 C=    0.0000
 XYZ=   15.6391   28.4873   20.0649 Q=    0.4170 A=    0.0000 R=    0.0000 C=    0.0000
 XYZ=   14.7278   27.5682   19.2796 Q=    0.4170 A=    0.0000 R=    0.0000 C=    0.0000
 XYZ=   19.0032   22.4279   18.5967 Q=   -0.8340 A=    0.0000 R=    0.0000 C=    0.0000
 XYZ=   18.3020   23.0778   18.5500 Q=    0.4170 A=    0.0000 R=    0.0000 C=    0.0000
 XYZ=   19.5122   22.5662   17.7979 Q=    0.4170 A=    0.0000 R=    0.0000 C=    0.0000
 XYZ=   13.8312   23.8019   25.2916 Q=   -0.8340 A=    0.0000 R=    0.0000 C=    0.0000
 XYZ=   14.0872   23.7197   26.2102 Q=    0.4170 A=    0.0000 R=    0.0000 C=    0.0000
 XYZ=   14.2831   23.0820   24.8512 Q=    0.4170 A=    0.0000 R=    0.0000 C=    0.0000
 XYZ=   11.4709   21.7484   25.1480 Q=   -0.8340 A=    0.0000 R=    0.0000 C=    0.0000
 XYZ=   12.0870   22.4663   25.0017 Q=    0.4170 A=    0.0000 R=    0.0000 C=    0.0000
 XYZ=   11.7835   21.0444   24.5798 Q=    0.4170 A=    0.0000 R=    0.0000 C=    0.0000
 XYZ=   19.5753   23.8087    8.8952 Q=   -0.8340 A=    0.0000 R=    0.0000 C=    0.0000
 XYZ=   18.7585   23.9484    9.3743 Q=    0.4170 A=    0.0000 R=    0.0000 C=    0.0000
 XYZ=   19.3607   24.0231    7.9873 Q=    0.4170 A=    0.0000 R=    0.0000 C=    0.0000
 XYZ=   21.5267   10.7993   12.1412 Q=   -0.8340 A=    0.0000 R=    0.0000 C=    0.0000
 XYZ=   20.5915   10.6803   11.9751 Q=    0.4170 A=    0.0000 R=    0.0000 C=    0.0000
 XYZ=   21.9312    9.9911   11.8258 Q=    0.4170 A=    0.0000 R=    0.0000 C=    0.0000
 XYZ=   17.8634   15.3427    6.4544 Q=   -0.8340 A=    0.0000 R=    0.0000 C=    0.0000
 XYZ=   18.5105   15.4922    7.1437 Q=    0.4170 A=    0.0000 R=    0.0000 C=    0.0000
 XYZ=   17.0186   15.4626    6.8882 Q=    0.4170 A=    0.0000 R=    0.0000 C=    0.0000
 XYZ=   14.3919    8.6998   29.6659 Q=   -0.8340 A=    0.0000 R=    0.0000 C=    0.0000
 XYZ=   14.0424    8.6690   28.7753 Q=    0.4170 A=    0.0000 R=    0.0000 C=    0.0000
 XYZ=   15.0604    8.0151   29.6852 Q=    0.4170 A=    0.0000 R=    0.0000 C=    0.0000
 XYZ=   11.6848   13.9311   14.4035 Q=   -0.8340 A=    0.0000 R=    0.0000 C=    0.0000
 XYZ=   11.7626   14.8817   14.3222 Q=    0.4170 A=    0.0000 R=    0.0000 C=    0.0000
 XYZ=   11.0616   13.8017   15.1184 Q=    0.4170 A=    0.0000 R=    0.0000 C=    0.0000
 XYZ=   22.1323    8.3761   10.9477 Q=   -0.8340 A=    0.0000 R=    0.0000 C=    0.0000
 XYZ=   22.1446    7.7172   11.6419 Q=    0.4170 A=    0.0000 R=    0.0000 C=    0.0000
 XYZ=   21.4460    8.0813   10.3491 Q=    0.4170 A=    0.0000 R=    0.0000 C=    0.0000
 XYZ=    7.9320   11.4953   11.2869 Q=   -0.8340 A=    0.0000 R=    0.0000 C=    0.0000
 XYZ=    8.1181   11.2326   12.1884 Q=    0.4170 A=    0.0000 R=    0.0000 C=    0.0000
 XYZ=    8.3261   10.8076   10.7503 Q=    0.4170 A=    0.0000 R=    0.0000 C=    0.0000
 XYZ=   11.3986   25.6041   22.4573 Q=   -0.8340 A=    0.0000 R=    0.0000 C=    0.0000
 XYZ=   11.6783   26.4896   22.2250 Q=    0.4170 A=    0.0000 R=    0.0000 C=    0.0000
 XYZ=   11.2707   25.6339   23.4055 Q=    0.4170 A=    0.0000 R=    0.0000 C=    0.0000
 XYZ=   27.0526    8.9959   18.7642 Q=   -0.8340 A=    0.0000 R=    0.0000 C=    0.0000
 XYZ=   26.9251    9.0233   19.7125 Q=    0.4170 A=    0.0000 R=    0.0000 C=    0.0000
 XYZ=   28.0020    8.9520   18.6508 Q=    0.4170 A=    0.0000 R=    0.0000 C=    0.0000
 XYZ=   20.0804   16.0649   24.3181 Q=   -0.8340 A=    0.0000 R=    0.0000 C=    0.0000
 XYZ=   19.6888   15.6701   23.5390 Q=    0.4170 A=    0.0000 R=    0.0000 C=    0.0000
 XYZ=   20.0836   15.3618   24.9676 Q=    0.4170 A=    0.0000 R=    0.0000 C=    0.0000
 XYZ=   10.6067   17.9980   11.4065 Q=   -0.8340 A=    0.0000 R=    0.0000 C=    0.0000
 XYZ=    9.6646   17.8614   11.5067 Q=    0.4170 A=    0.0000 R=    0.0000 C=    0.0000
 XYZ=   10.8074   17.6560   10.5353 Q=    0.4170 A=    0.0000 R=    0.0000 C=    0.0000
 XYZ=   29.6742   13.7904   11.8713 Q=   -0.8340 A=    0.0000 R=    0.0000 C=    0.0000
 XYZ=   30.3537   13.4890   11.2681 Q=    0.4170 A=    0.0000 R=    0.0000 C=    0.0000
 XYZ=   29.1881   12.9983   12.1002 Q=    0.4170 A=    0.0000 R=    0.0000 C=    0.0000
 XYZ=   10.8963   10.7722   28.2416 Q=   -0.8340 A=    0.0000 R=    0.0000 C=    0.0000
 XYZ=   10.7210   10.8020   29.1822 Q=    0.4170 A=    0.0000 R=    0.0000 C=    0.0000
 XYZ=   10.0536   10.9723   27.8340 Q=    0.4170 A=    0.0000 R=    0.0000 C=    0.0000
 XYZ=   11.4293   29.4051   16.7360 Q=   -0.8340 A=    0.0000 R=    0.0000 C=    0.0000
 XYZ=   11.1460   30.3042   16.5700 Q=    0.4170 A=    0.0000 R=    0.0000 C=    0.0000
 XYZ=   11.0410   28.8959   16.0246 Q=    0.4170 A=    0.0000 R=    0.0000 C=    0.0000
 XYZ=   16.0934   15.5652   25.9837 Q=   -0.8340 A=    0.0000 R=    0.0000 C=    0.0000
 XYZ=   16.1546   14.8108   26.5697 Q=    0.4170 A=    0.0000 R=    0.0000 C=    0.0000
 XYZ=   15.8332   16.2901   26.5520 Q=    0.4170 A=    0.0000 R=    0.0000 C=    0.0000
 XYZ=   20.9099    7.3925    5.9063 Q=   -0.8340 A=    0.0000 R=    0.0000 C=    0.0000
 XYZ=   21.6052    7.1400    6.5138 Q=    0.4170 A=    0.0000 R=    0.0000 C=    0.0000
 XYZ=   20.8883    6.6871    5.2596 Q=    0.4170 A=    0.0000 R=    0.0000 C=    0.0000
 XYZ=   29.4482   17.1297   12.7735 Q=   -0.8340 A=    0.0000 R=    0.0000 C=    0.0000
 XYZ=   30.3998   17.0846   12.6807 Q=    0.4170 A=    0.0000 R=    0.0000 C=    0.0000
 XYZ=   29.2888   16.9532   13.7007 Q=    0.4170 A=    0.0000 R=    0.0000 C=    0.0000
 XYZ=    9.1379    9.9643    9.6237 Q=   -0.8340 A=    0.0000 R=    0.0000 C=    0.0000
 XYZ=    9.9808   10.3577    9.3979 Q=    0.4170 A=    0.0000 R=    0.0000 C=    0.0000
 XYZ=    8.8010    9.6261    8.7941 Q=    0.4170 A=    0.0000 R=    0.0000 C=    0.0000
 XYZ=   11.5355    3.5448   19.9841 Q=   -0.8340 A=    0.0000 R=    0.0000 C=    0.0000
 XYZ=   11.7575    2.6163   19.9146 Q=    0.4170 A=    0.0000 R=    0.0000 C=    0.0000
 XYZ=   10.5930    3.5790   19.8211 Q=    0.4170 A=    0.0000 R=    0.0000 C=    0.0000
 XYZ=    9.0444   26.7233   15.0711 Q=   -0.8340 A=    0.0000 R=    0.0000 C=    0.0000
 XYZ=    8.5706   27.3648   15.6005 Q=    0.4170 A=    0.0000 R=    0.0000 C=    0.0000
 XYZ=    9.3033   26.0433   15.6930 Q=    0.4170 A=    0.0000 R=    0.0000 C=    0.0000
 XYZ=   12.4096   29.4899   19.3628 Q=   -0.8340 A=    0.0000 R=    0.0000 C=    0.0000
 XYZ=   11.9688   29.4840   18.5132 Q=    0.4170 A=    0.0000 R=    0.0000 C=    0.0000
 XYZ=   13.2383   29.0370   19.2064 Q=    0.4170 A=    0.0000 R=    0.0000 C=    0.0000
 XYZ=    9.4710   22.4329   19.0234 Q=   -0.8340 A=    0.0000 R=    0.0000 C=    0.0000
 XYZ=    8.5560   22.2672   19.2505 Q=    0.4170 A=    0.0000 R=    0.0000 C=    0.0000
 XYZ=    9.9675   21.8191   19.5646 Q=    0.4170 A=    0.0000 R=    0.0000 C=    0.0000
 XYZ=    8.6403    4.0641   19.0515 Q=   -0.8340 A=    0.0000 R=    0.0000 C=    0.0000
 XYZ=    7.7513    4.3233   18.8092 Q=    0.4170 A=    0.0000 R=    0.0000 C=    0.0000
 XYZ=    8.5205    3.3302   19.6542 Q=    0.4170 A=    0.0000 R=    0.0000 C=    0.0000
 XYZ=   17.6701    5.1952   21.1033 Q=   -0.8340 A=    0.0000 R=    0.0000 C=    0.0000
 XYZ=   18.5952    5.2950   20.8790 Q=    0.4170 A=    0.0000 R=    0.0000 C=    0.0000
 XYZ=   17.3250    4.5989   20.4388 Q=    0.4170 A=    0.0000 R=    0.0000 C=    0.0000
 XYZ=   20.0566   26.9168   11.9813 Q=   -0.8340 A=    0.0000 R=    0.0000 C=    0.0000
 XYZ=   20.4654   27.3992   12.6999 Q=    0.4170 A=    0.0000 R=    0.0000 C=    0.0000
 XYZ=   20.7902   26.5261   11.5066 Q=    0.4170 A=    0.0000 R=    0.0000 C=    0.0000
 XYZ=   26.6578    9.8000   13.6579 Q=   -0.8340 A=    0.0000 R=    0.0000 C=    0.0000
 XYZ=   26.9917    9.0863   13.1143 Q=    0.4170 A=    0.0000 R=    0.0000 C=    0.0000
 XYZ=   26.9918    9.6103   14.5347 Q=    0.4170 A=    0.0000 R=    0.0000 C=    0.0000
 XYZ=   20.9203   20.4706   28.6144 Q=   -0.8340 A=    0.0000 R=    0.0000 C=    0.0000
 XYZ=   20.5010   20.9218   29.3471 Q=    0.4170 A=    0.0000 R=    0.0000 C=    0.0000
 XYZ=   21.5347   19.8632   29.0265 Q=    0.4170 A=    0.0000 R=    0.0000 C=    0.0000
 XYZ=   23.0161   19.6747    9.0773 Q=   -0.8340 A=    0.0000 R=    0.0000 C=    0.0000
 XYZ=   22.3421   20.2705    8.7502 Q=    0.4170 A=    0.0000 R=    0.0000 C=    0.0000
 XYZ=   22.5402   18.8765    9.3064 Q=    0.4170 A=    0.0000 R=    0.0000 C=    0.0000
 XYZ=   27.6999   17.9352    8.5672 Q=   -0.8340 A=    0.0000 R=    0.0000 C=    0.0000
 XYZ=   27.7402   17.5653    9.4492 Q=    0.4170 A=    0.0000 R=    0.0000 C=    0.0000
 XYZ=   26.8306   18.3323    8.5131 Q=    0.4170 A=    0.0000 R=    0.0000 C=    0.0000
 XYZ=   11.1961   22.0208    9.6870 Q=   -0.8340 A=    0.0000 R=    0.0000 C=    0.0000
 XYZ=   10.6617   21.9391    8.8971 Q=    0.4170 A=    0.0000 R=    0.0000 C=    0.0000
 XYZ=   11.9623   21.4732    9.5160 Q=    0.4170 A=    0.0000 R=    0.0000 C=    0.0000
 XYZ=   25.2041   16.3080   21.0781 Q=   -0.8340 A=    0.0000 R=    0.0000 C=    0.0000
 XYZ=   25.0287   15.3772   21.2159 Q=    0.4170 A=    0.0000 R=    0.0000 C=    0.0000
 XYZ=   25.9368   16.5033   21.6623 Q=    0.4170 A=    0.0000 R=    0.0000 C=    0.0000
 XYZ=   20.2530   20.4102   24.0422 Q=   -0.8340 A=    0.0000 R=    0.0000 C=    0.0000
 XYZ=   20.9122   19.7546   23.8144 Q=    0.4170 A=    0.0000 R=    0.0000 C=    0.0000
 XYZ=   20.7451   21.2273   24.1229 Q=    0.4170 A=    0.0000 R=    0.0000 C=    0.0000
 XYZ=   18.7620    8.3019    7.2411 Q=   -0.8340 A=    0.0000 R=    0.0000 C=    0.0000
 XYZ=   19.2269    8.5687    8.0341 Q=    0.4170 A=    0.0000 R=    0.0000 C=    0.0000
 XYZ=   19.4426    8.2492    6.5701 Q=    0.4170 A=    0.0000 R=    0.0000 C=    0.0000
 XYZ=   21.8995   21.8227   20.5903 Q=   -0.8340 A=    0.0000 R=    0.0000 C=    0.0000
 XYZ=   22.1388   21.7238   21.5119 Q=    0.4170 A=    0.0000 R=    0.0000 C=    0.0000
 XYZ=   22.7233   22.0303   20.1494 Q=    0.4170 A=    0.0000 R=    0.0000 C=    0.0000
 XYZ=    5.9417   21.2079   17.8574 Q=   -0.8340 A=    0.0000 R=    0.0000 C=    0.0000
 XYZ=    6.0900   21.9217   18.4777 Q=    0.4170 A=    0.0000 R=    0.0000 C=    0.0000
 XYZ=    5.0571   20.8995   18.0534 Q=    0.4170 A=    0.0000 R=    0.0000 C=    0.0000
 XYZ=   24.4819   20.8734   24.0676 Q=   -0.8340 A=    0.0000 R=    0.0000 C=    0.0000
 XYZ=   23.6192   20.7403   24.4603 Q=    0.4170 A=    0.0000 R=    0.0000 C=    0.0000
 XYZ=   24.4090   20.4913   23.1930 Q=    0.4170 A=    0.0000 R=    0.0000 C=    0.0000
 XYZ=    6.4637    7.6363   19.6493 Q=   -0.8340 A=    0.0000 R=    0.0000 C=    0.0000
 XYZ=    5.9718    6.8262   19.7833 Q=    0.4170 A=    0.0000 R=    0.0000 C=    0.0000
 XYZ=    7.0386    7.6970   20.4123 Q=    0.4170 A=    0.0000 R=    0.0000 C=    0.0000
 XYZ=   17.4971   10.3803    2.1050 Q=   -0.8340 A=    0.0000 R=    0.0000 C=    0.0000
 XYZ=   18.0458   11.1526    1.9680 Q=    0.4170 A=    0.0000 R=    0.0000 C=    0.0000
 XYZ=   17.3605   10.3479    3.0519 Q=    0.4170 A=    0.0000 R=    0.0000 C=    0.0000
 XYZ=   11.5194   11.6287   10.4071 Q=   -0.8340 A=    0.0000 R=    0.0000 C=    0.0000
 XYZ=   12.1482   11.1264    9.8889 Q=    0.4170 A=    0.0000 R=    0.0000 C=    0.0000
 XYZ=   11.7347   11.4183   11.3157 Q=    0.4170 A=    0.0000 R=    0.0000 C=    0.0000
 XYZ=    9.0220   27.9417   20.0242 Q=   -0.8340 A=    0.0000 R=    0.0000 C=    0.0000
 XYZ=    8.7782   28.2541   20.8956 Q=    0.4170 A=    0.0000 R=    0.0000 C=    0.0000
 XYZ=    9.1277   26.9961   20.1292 Q=    0.4170 A=    0.0000 R=    0.0000 C=    0.0000
 XYZ=   25.5882   14.4694    6.5493 Q=   -0.8340 A=    0.0000 R=    0.0000 C=    0.0000
 XYZ=   25.0216   13.7505    6.8293 Q=    0.4170 A=    0.0000 R=    0.0000 C=    0.0000
 XYZ=   26.3575   14.4030    7.1150 Q=    0.4170 A=    0.0000 R=    0.0000 C=    0.0000
 XYZ=    3.9355   18.2422    7.9095 Q=   -0.8340 A=    0.0000 R=    0.0000 C=    0.0000
 XYZ=    4.1159   17.6188    8.6131 Q=    0.4170 A=    0.0000 R=    0.0000 C=    0.0000
 XYZ=    2.9943   18.4059    7.9694 Q=    0.4170 A=    0.0000 R=    0.0000 C=    0.0000
 XYZ=   21.4676   28.3715   25.2963 Q=   -0.8340 A=    0.0000 R=    0.0000 C=    0.0000
 XYZ=   21.8673   27.9047   24.5624 Q=    0.4170 A=    0.0000 R=    0.0000 C=    0.0000
 XYZ=   20.6633   27.8860   25.4799 Q=    0.4170 A=    0.0000 R=    0.0000 C=    0.0000
 XYZ=   17.5075   21.0959    8.7798 Q=   -0.8340 A=    0.0000 R=    0.0000 C=    0.0000
 XYZ=   17.3404   21.7920    8.1445 Q=    0.4170 A=    0.0000 R=    0.0000 C=    0.0000
 XYZ=   17.1145   21.4135    9.5928 Q=    0.4170 A=    0.0000 R=    0.0000 C=    0.0000
 XYZ=   13.1877   11.4504   21.5501 Q=   -0.8340 A=    0.0000 R=    0.0000 C=    0.0000
 XYZ=   13.3476   12.2861   21.1118 Q=    0.4170 A=    0.0000 R=    0.0000 C=    0.0000
 XYZ=   13.8076   10.8442   21.1445 Q=    0.4170 A=    0.0000 R=    0.0000 C=    0.0000
 XYZ=   16.2455   17.3896    4.8791 Q=   -0.8340 A=    0.0000 R=    0.0000 C=    0.0000
 XYZ=   15.7700   18.1043    5.3026 Q=    0.4170 A=    0.0000 R=    0.0000 C=    0.0000
 XYZ=   15.7118   16.6132    5.0476 Q=    0.4170 A=    0.0000 R=    0.0000 C=    0.0000
 XYZ=   11.5920   25.1931   25.4834 Q=   -0.8340 A=    0.0000 R=    0.0000 C=    0.0000
 XYZ=   12.4267   24.7501   25.3312 Q=    0.4170 A=    0.0000 R=    0.0000 C=    0.0000
 XYZ=   11.6976   25.6182   26.3345 Q=    0.4170 A=    0.0000 R=    0.0000 C=    0.0000
 XYZ=   25.5720   11.8594   12.2591 Q=   -0.8340 A=    0.0000 R=    0.0000 C=    0.0000
 XYZ=   25.9837   11.3350   12.9460 Q=    0.4170 A=    0.0000 R=    0.0000 C=    0.0000
 XYZ=   25.8980   11.4827   11.4418 Q=    0.4170 A=    0.0000 R=    0.0000 C=    0.0000
 XYZ=   23.3115    4.0846   18.0831 Q=   -0.8340 A=    0.0000 R=    0.0000 C=    0.0000
 XYZ=   23.7652    4.4235   18.8548 Q=    0.4170 A=    0.0000 R=    0.0000 C=    0.0000
 XYZ=   23.1281    4.8601   17.5527 Q=    0.4170 A=    0.0000 R=    0.0000 C=    0.0000
 XYZ=   21.0341    2.8023   18.7668 Q=   -0.8340 A=    0.0000 R=    0.0000 C=    0.0000
 XYZ=   20.7299    2.4224   17.9425 Q=    0.4170 A=    0.0000 R=    0.0000 C=    0.0000
 XYZ=   21.4359    3.6336   18.5141 Q=    0.4170 A=    0.0000 R=    0.0000 C=    0.0000
 XYZ=   20.0502   21.8532   26.5592 Q=   -0.8340 A=    0.0000 R=    0.0000 C=    0.0000
 XYZ=   20.2493   21.2947   25.8078 Q=    0.4170 A=    0.0000 R=    0.0000 C=    0.0000
 XYZ=   20.3314   21.3430   27.3187 Q=    0.4170 A=    0.0000 R=    0.0000 C=    0.0000
 XYZ=   21.3339    6.0537   12.1847 Q=   -0.8340 A=    0.0000 R=    0.0000 C=    0.0000
 XYZ=   20.9883    5.4932   11.4899 Q=    0.4170 A=    0.0000 R=    0.0000 C=    0.0000
 XYZ=   20.5923    6.1900   12.7743 Q=    0.4170 A=    0.0000 R=    0.0000 C=    0.0000
 XYZ=    8.6806   12.4839   21.5356 Q=   -0.8340 A=    0.0000 R=    0.0000 C=    0.0000
 XYZ=    9.5698   12.6910   21.2480 Q=    0.4170 A=    0.0000 R=    0.0000 C=    0.0000
 XYZ=    8.6960   12.6237   22.4824 Q=    0.4170 A=    0.0000 R=    0.0000 C=    0.0000
 XYZ=    6.5237   20.2608   11.9676 Q=   -0.8340 A=    0.0000 R=    0.0000 C=    0.0000
 XYZ=    6.4440   20.8500   11.2175 Q=    0.4170 A=    0.0000 R=    0.0000 C=    0.0000
 XYZ=    7.3858   20.4555   12.3351 Q=    0.4170 A=    0.0000 R=    0.0000 C=    0.0000
 XYZ=   24.2077   20.2366   21.4339 Q=   -0.8340 A=    0.0000 R=    0.0000 C=    0.0000
 XYZ=   23.6032   19.6844   20.9380 Q=    0.4170 A=    0.0000 R=    0.0000 C=    0.0000
 XYZ=   24.4956   20.9003   20.8072 Q=    0.4170 A=    0.0000 R=    0.0000 C=    0.0000
 XYZ=   12.6417    7.1481    9.6620 Q=   -0.8340 A=    0.0000 R=    0.0000 C=    0.0000
 XYZ=   11.7583    6.8024    9.5343 Q=    0.4170 A=    0.0000 R=    0.0000 C=    0.0000
 XYZ=   13.2179    6.4713    9.3069 Q=    0.4170 A=    0.0000 R=    0.0000 C=    0.0000
 XYZ=    6.1860   21.5508   23.8629 Q=   -0.8340 A=    0.0000 R=    0.0000 C=    0.0000
 XYZ=    7.1353   21.5570   23.7404 Q=    0.4170 A=    0.0000 R=    0.0000 C=    0.0000
 XYZ=    5.8503   22.1135   23.1651 Q=    0.4170 A=    0.0000 R=    0.0000 C=    0.0000
 XYZ=   15.2241   24.5941   12.6354 Q=   -0.8340 A=    0.0000 R=    0.0000 C=    0.0000
 XYZ=   14.3023   24.5249   12.3869 Q=    0.4170 A=    0.0000 R=    0.0000 C=    0.0000
 XYZ=   15.4072   23.7814   13.1069 Q=    0.4170 A=    0.0000 R=    0.0000 C=    0.0000
 XYZ=    8.0195   28.3129   17.5700 Q=   -0.8340 A=    0.0000 R=    0.0000 C=    0.0000
 XYZ=    8.3609   28.1267   18.4446 Q=    0.4170 A=    0.0000 R=    0.0000 C=    0.0000
 XYZ=    7.0989   28.0540   17.6115 Q=    0.4170 A=    0.0000 R=    0.0000 C=    0.0000
 XYZ=   24.1066    7.1262   13.0198 Q=   -0.8340 A=    0.0000 R=    0.0000 C=    0.0000
 XYZ=   24.7559    6.5395   12.6320 Q=    0.4170 A=    0.0000 R=    0.0000 C=    0.0000
 XYZ=   23.2780    6.8673   12.6167 Q=    0.4170 A=    0.0000 R=    0.0000 C=    0.0000
 XYZ=   11.1215   17.4850   21.5523 Q=   -0.8340 A=    0.0000 R=    0.0000 C=    0.0000
 XYZ=   11.1225   16.9000   20.7946 Q=    0.4170 A=    0.0000 R=    0.0000 C=    0.0000
 XYZ=   11.3861   16.9290   22.2851 Q=    0.4170 A=    0.0000 R=    0.0000 C=    0.0000
 XYZ=   14.0001   24.0489   22.0205 Q=   -0.8340 A=    0.0000 R=    0.0000 C=    0.0000
 XYZ=   13.4007   24.5281   22.5927 Q=    0.4170 A=    0.0000 R=    0.0000 C=    0.0000
 XYZ=   14.7183   23.7825   22.5945 Q=    0.4170 A=    0.0000 R=    0.0000 C=    0.0000
 XYZ=   16.1602   18.8349    2.3313 Q=   -0.8340 A=    0.0000 R=    0.0000 C=    0.0000
 XYZ=   15.9482   18.3597    3.1347 Q=    0.4170 A=    0.0000 R=    0.0000 C=    0.0000
 XYZ=   15.7712   19.7007    2.4548 Q=    0.4170 A=    0.0000 R=    0.0000 C=    0.0000
 XYZ=    6.5947   21.6942    8.7683 Q=   -0.8340 A=    0.0000 R=    0.0000 C=    0.0000
 XYZ=    5.6751   21.6934    9.0337 Q=    0.4170 A=    0.0000 R=    0.0000 C=    0.0000
 XYZ=    6.7528   22.5841    8.4530 Q=    0.4170 A=    0.0000 R=    0.0000 C=    0.0000
 XYZ=   11.6772   19.8513    6.5167 Q=   -0.8340 A=    0.0000 R=    0.0000 C=    0.0000
 XYZ=   11.2657   19.0846    6.1178 Q=    0.4170 A=    0.0000 R=    0.0000 C=    0.0000
 XYZ=   10.9458   20.3668    6.8565 Q=    0.4170 A=    0.0000 R=    0.0000 C=    0.0000
 XYZ=   13.7378   27.4455   12.2541 Q=   -0.8340 A=    0.0000 R=    0.0000 C=    0.0000
 XYZ=   14.0084   27.2606   11.3548 Q=    0.4170 A=    0.0000 R=    0.0000 C=    0.0000
 XYZ=   12.7863   27.3413   12.2446 Q=    0.4170 A=    0.0000 R=    0.0000 C=    0.0000
 XYZ=   15.6009   22.9277   16.7956 Q=   -0.8340 A=    0.0000 R=    0.0000 C=    0.0000
 XYZ=   16.0349   23.7095   16.4541 Q=    0.4170 A=    0.0000 R=    0.0000 C=    0.0000
 XYZ=   14.9124   23.2661   17.3680 Q=    0.4170 A=    0.0000 R=    0.0000 C=    0.0000
 XYZ=   16.9956   12.2712   27.3525 Q=   -0.8340 A=    0.0000 R=    0.0000 C=    0.0000
 XYZ=   17.6279   12.1732   26.6406 Q=    0.4170 A=    0.0000 R=    0.0000 C=    0.0000
 XYZ=   17.2346   13.0968   27.7738 Q=    0.4170 A=    0.0000 R=    0.0000 C=    0.0000
 XYZ=   19.5776    8.0156   10.0022 Q=   -0.8340 A=    0.0000 R=    0.0000 C=    0.0000
 XYZ=   19.3913    8.9366   10.1844 Q=    0.4170 A=    0.0000 R=    0.0000 C=    0.0000
 XYZ=   18.8137    7.5456   10.3364 Q=    0.4170 A=    0.0000 R=    0.0000 C=    0.0000
 XYZ=   20.5056   12.1075   19.7423 Q=   -0.8340 A=    0.0000 R=    0.0000 C=    0.0000
 XYZ=   20.6712   11.4745   19.0437 Q=    0.4170 A=    0.0000 R=    0.0000 C=    0.0000
 XYZ=   21.3563   12.2267   20.1647 Q=    0.4170 A=    0.0000 R=    0.0000 C=    0.0000
 XYZ=   13.9417   22.0906   30.6393 Q=   -0.8340 A=    0.0000 R=    0.0000 C=    0.0000
 XYZ=   13.6370   21.2019   30.4557 Q=    0.4170 A=    0.0000 R=    0.0000 C=    0.0000
 XYZ=   13.1680   22.6401   30.5143 Q=    0.4170 A=    0.0000 R=    0.0000 C=    0.0000
 XYZ=   17.2452    6.6659   11.2178 Q=   -0.8340 A=    0.0000 R=    0.0000 C=    0.0000
 XYZ=   17.1945    7.4016   11.8281 Q=    0.4170 A=    0.0000 R=    0.0000 C=    0.0000
 XYZ=   16.3909    6.2394   11.2847 Q=    0.4170 A=    0.0000 R=    0.0000 C=    0.0000
 XYZ=   26.1805    6.4553   15.4644 Q=   -0.8340 A=    0.0000 R=    0.0000 C=    0.0000
 XYZ=   26.8753    7.1051   15.3583 Q=    0.4170 A=    0.0000 R=    0.0000 C=    0.0000
 XYZ=   25.5313    6.6877   14.8005 Q=    0.4170 A=    0.0000 R=    0.0000 C=    0.0000
 XYZ=   17.6556   31.0978   17.8447 Q=   -0.8340 A=    0.0000 R=    0.0000 C=    0.0000
 XYZ=   17.7317   30.4045   17.1892 Q=    0.4170 A=    0.0000 R=    0.0000 C=    0.0000
 XYZ=   16.7155   31.2670   17.9071 Q=    0.4170 A=    0.0000 R=    0.0000 C=    0.0000
 XYZ=   18.7453   10.9259   13.8028 Q=   -0.8340 A=    0.0000 R=    0.0000 C=    0.0000
 XYZ=   18.8905   11.8037   14.1560 Q=    0.4170 A=    0.0000 R=    0.0000 C=    0.0000
 XYZ=   17.7960   10.8637   13.6973 Q=    0.4170 A=    0.0000 R=    0.0000 C=    0.0000
 XYZ=   17.1440   26.8925   12.1483 Q=   -0.8340 A=    0.0000 R=    0.0000 C=    0.0000
 XYZ=   17.0321   25.9453   12.2292 Q=    0.4170 A=    0.0000 R=    0.0000 C=    0.0000
 XYZ=   18.0915   27.0255   12.1777 Q=    0.4170 A=    0.0000 R=    0.0000 C=    0.0000
 XYZ=    5.6113   21.0623   14.9186 Q=   -0.8340 A=    0.0000 R=    0.0000 C=    0.0000
 XYZ=    6.4879   21.0091   14.5377 Q=    0.4170 A=    0.0000 R=    0.0000 C=    0.0000
 XYZ=    5.7612   21.0810   15.8638 Q=    0.4170 A=    0.0000 R=    0.0000 C=    0.0000
 XYZ=   29.2932   15.6553   15.8943 Q=   -0.8340 A=    0.0000 R=    0.0000 C=    0.0000
 XYZ=   29.4710   14.7830   15.5427 Q=    0.4170 A=    0.0000 R=    0.0000 C=    0.0000
 XYZ=   30.1304   16.1150   15.8306 Q=    0.4170 A=    0.0000 R=    0.0000 C=    0.0000
 XYZ=   13.9417   20.4837    2.7658 Q=   -0.8340 A=    0.0000 R=    0.0000 C=    0.0000
 XYZ=   12.9922   20.3876    2.6916 Q=    0.4170 A=    0.0000 R=    0.0000 C=    0.0000
 XYZ=   14.2013   20.9313    1.9605 Q=    0.4170 A=    0.0000 R=    0.0000 C=    0.0000
 XYZ=    6.8479   19.1940   27.5480 Q=   -0.8340 A=    0.0000 R=    0.0000 C=    0.0000
 XYZ=    6.5724   20.1107   27.5517 Q=    0.4170 A=    0.0000 R=    0.0000 C=    0.0000
 XYZ=    7.0498   19.0078   26.6310 Q=    0.4170 A=    0.0000 R=    0.0000 C=    0.0000
 XYZ=   23.3022   16.6879   15.6249 Q=   -0.8340 A=    0.0000 R=    0.0000 C=    0.0000
[...]
 .00018262,-0.00000125,0.00006072,-0.00007480,0.00001294,-0.00001241,-0
 .00007590,-0.00001754,-0.00040374,0.00009387,0.00007827,0.00009402,0.0
 0000429,0.00000919,0.00048079,-0.00009095,-0.00006950,0.00003778,0.000
 28534,-0.00010547,-0.00009201,-0.00031779,0.00012297,0.00002284,-0.000
 10307,0.00000097,0.00007836,0.00005427,-0.00006613,-0.00003189,-0.0000
 0822,0.00000821,-0.00002327,-0.00005970,0.00005683,0.00032763,0.000340
 47,-0.00063517,-0.00002495,-0.00002771,0.00014200,-0.00041303,0.000161
 05,0.00047753,-0.00003169,0.00019938,0.00004054,0.00004717,-0.00008859
 ,-0.00000156,0.00001597,-0.00014233,-0.00001204,-0.00142993,-0.0000678
 7,0.00016768,0.00085233,-0.00023758,-0.00051772,0.00042301,0.00023012,
 -0.00004384,-0.00013780,0.00014138,0.00006934,0.00007832,-0.00009372,0
 .00000043,0.00009562,-0.00008967,-0.00005524,0.00077435,-0.00067744,-0
 .00016260,-0.00024391,0.00042573,0.00018974,-0.00057051,0.00043591,-0.
 00019044,0.00034125,-0.00005612,-0.00007420,-0.00009559,-0.00001671,0.
 00002387,-0.00038055,0.00007577,0.00011342,-0.05970767,0.50731951,-0.0
 0117879,-0.00018899,0.00058206,-0.00012560,0.00110578,-0.00104827,-0.0
 0123211,-0.00098939,0.00070247,0.00219896,0.00446975,-0.00490387,0.002
 15199,0.00015388,0.00203998,0.00002412,0.00000018,0.00006317,0.0001146
 8,-0.00003972,-0.00005210,-0.00562587,-0.00059676,0.00608521,0.0007401
 3,0.00012468,0.00049335,0.00105064,-0.00085134,0.00028050,-0.00001790,
 -0.00018495,-0.00008907,-0.00260155,-0.00235798,-0.00356943,-0.0016369
 1,0.00149211,-0.00140914,0.00209296,-0.00152001,0.00015210,0.00044272,
 0.00009669,0.00029195,0.00001215,-0.00000540,0.00006522,0.00000264,0.0
 0000882,-0.00002538,0.00000235,-0.00001158,-0.00004118,-0.00032501,-0.
 00041404,0.00032659,0.00007288,0.00003988,-0.00033725,0.00015249,0.000
 34839,-0.00013281,0.00201401,0.00058123,-0.00348706,-0.00145282,-0.000
 93978,0.00059231,-0.00084841,0.00075989,0.00070176,0.00200781,0.000991
 79,0.00855531,-0.00499029,0.00066402,-0.00907646,0.00022929,0.00234438
 ,-0.00112402,0.00017114,0.00000398,-0.00000110,-0.00004310,-0.00001163
 ,0.00001549,-0.00020902,-0.00002487,0.00003671,0.00009678,0.00004489,0
 .00005398,-0.00003953,-0.00002176,-0.00002174,-0.00002639,-0.00002376,
 -0.00003693,-0.00010842,-0.00003943,0.00012455,0.00002344,0.00001820,-
 0.00004521,0.00003221,0.00000452,-0.00005309,0.00006569,0.00002098,0.0
 0011610,-0.00001251,-0.00000282,-0.00003828,-0.00003590,-0.00002482,-0
 .00009124,0.00057953,-0.00004537,-0.00012607,-0.00041928,0.00006990,0.
 00010191,-0.00018797,0.00003300,0.00015665,0.00010429,-0.00005065,0.00
 007607,-0.00004138,0.00002277,-0.00001900,-0.00007456,0.00003400,-0.00
 004968,0.00080005,-0.00070013,-0.00011785,-0.00011376,0.00014577,0.000
 12352,-0.00037518,0.00045856,-0.00022155,-0.00001909,0.00000605,0.0001
 2050,0.00003769,0.00001670,-0.00010856,-0.00001975,-0.00000202,-0.0000
 5032,0.00005065,0.00017036,0.00039368,-0.00005920,-0.00025751,-0.00024
 005,-0.00001474,-0.00005074,-0.00006807,0.00016310,0.00012404,0.000023
 44,-0.00009115,-0.00001558,-0.00002187,-0.00010986,-0.00011017,-0.0000
 1735,0.00015869,-0.00034833,0.00058933,-0.00004050,0.00026814,-0.00025
 159,0.00007484,-0.00003433,-0.00042264,0.00004497,-0.00005371,0.000157
 62,-0.00002222,0.00001560,-0.00007360,-0.00004588,0.00003764,-0.000093
 67,0.35811288,0.05554467,0.40418274,-0.00056663,-0.00073659,0.00073815
 ,-0.00000422,-0.00022992,0.00022749,0.00043930,-0.00002296,-0.00031888
 ,-0.00159850,-0.00045322,0.00003889,0.00042910,0.00063289,0.00022497,-
 0.00000945,0.00002977,0.00000565,0.00002031,-0.00000296,-0.00001166,0.
 00071846,0.00134553,0.00084762,0.00008472,0.00058959,-0.00024208,0.000
 18232,0.00017182,-0.00029188,-0.00014600,-0.00011919,0.00013626,-0.000
 81916,-0.00105782,-0.00102051,-0.00016477,-0.00019294,0.00025716,0.000
 02435,0.00011930,-0.00038844,-0.00001192,0.00001426,-0.00006051,0.0001
 1959,-0.00000683,0.00002568,-0.00003614,0.00001151,-0.00001561,-0.0000
 6654,-0.00000671,-0.00001642,0.00000567,0.00010425,0.00013100,0.000000
 25,-0.00003758,-0.00007277,0.00001368,-0.00007323,-0.00007052,0.000291
 90,0.00068095,-0.00202392,-0.00053776,-0.00046332,0.00048554,-0.000398
 78,0.00010322,0.00076426,-0.00010565,0.00174082,-0.00063960,0.00004340
 ,-0.00296536,0.00121402,0.00004370,-0.00029276,-0.00001353,0.00009848,
 -0.00000520,-0.00008361,-0.00002571,-0.00000214,0.00003595,-0.00010370
 ,-0.00000480,0.00007428,0.00010301,0.00009735,-0.00008860,-0.00003730,
 -0.00001110,0.00003319,-0.00003017,-0.00004097,0.00000412,0.00003212,0
 .00003076,0.00010013,-0.00001121,-0.00002234,-0.00003670,-0.00002563,-
 0.00000829,-0.00004891,0.00007377,0.00009900,0.00000804,-0.00002131,-0
 .00003090,-0.00000361,-0.00004933,-0.00006613,-0.00002333,0.00022214,-
 0.00000244,-0.00021659,-0.00015981,-0.00001236,0.00015806,-0.00005356,
 0.00000111,0.00009455,0.00009454,-0.00006891,-0.00005891,-0.00004525,0
 .00002856,0.00001173,-0.00005418,0.00001798,0.00004525,0.00026590,-0.0
 0029984,-0.00048359,0.00009939,0.00006310,0.00014350,-0.00023628,0.000
 38629,0.00021377,0.00008186,0.00006878,0.00005084,-0.00002003,-0.00003
 345,-0.00004329,-0.00005543,-0.00005895,-0.00001537,0.00000831,0.00019
 601,0.00012397,0.00000050,-0.00021328,-0.00011493,0.00001365,-0.000075
 82,-0.00000535,0.00003584,0.00011241,-0.00007574,-0.00002272,-0.000041
 08,0.00003081,-0.00004252,-0.00010197,0.00005946,0.00024383,-0.0006289
 7,0.00012972,0.00005963,0.00034579,-0.00000398,-0.00008713,0.00034874,
 -0.00019476,0.00011532,-0.00012810,-0.00000678,-0.00005514,0.00005169,
 0.00000250,-0.00011816,0.00009365,0.00002317,-0.12416792,-0.11605085,-
 0.16962535,0.13487882,-0.00037919,0.00007245,0.00010183,0.00001606,0.0
 0009111,-0.00005630,0.00008071,-0.00000246,0.00002198,-0.00018732,0.00
 023980,-0.00006534,0.00028601,-0.00001217,0.00013398,-0.00000016,0.000
 00384,-0.00000143,0.00002422,0.00000634,0.00000865,0.00112190,-0.00118
 625,-0.00058779,0.00023638,0.00000010,0.00007052,0.00022815,-0.0001101
 9,-0.00003826,-0.00002670,-0.00003367,0.00002689,-0.00077289,-0.000455
 53,-0.00052671,-0.00007814,-0.00050834,0.00002812,-0.00000350,0.000668
 24,-0.00006388,-0.00001734,0.00002806,-0.00002428,0.00002466,-0.000029
 68,0.00000583,-0.00000587,0.00001204,-0.00000312,-0.00002246,0.0000173
 8,-0.00000040,0.00002079,0.00001370,0.00003458,-0.00000842,-0.00000632
 ,-0.00002197,-0.00001672,-0.00001187,-0.00001635,0.00079610,-0.0006924
 3,-0.00116882,-0.00054920,-0.00014565,0.00030490,0.00002608,0.00072047
 ,-0.00007390,0.00060057,-0.00256584,0.00193328,-0.00220753,0.00236106,
 -0.00377247,0.00001678,0.00008691,-0.00000349,0.00001235,-0.00003752,-
 0.00001320,-0.00000424,0.00000947,0.00000830,-0.00001742,0.00001959,0.
 00001612,0.00003716,-0.00000624,-0.00001877,-0.00000798,0.00001476,0.0
 0001245,-0.00001255,-0.00000084,0.00000077,0.00001608,-0.00001425,0.00
 002320,-0.00000802,0.00000315,-0.00000897,-0.00000617,0.00000975,-0.00
 001044,0.00004529,0.00001121,0.00000864,-0.00001330,-0.00000463,-0.000
 00392,-0.00003829,-0.00000906,-0.00000809,0.00006208,-0.00017661,-0.00
 001396,0.00000543,0.00023539,-0.00003199,-0.00005033,0.00004916,0.0000
 3280,-0.00000579,-0.00005379,-0.00000274,-0.00000057,0.00001148,0.0000
 0103,-0.00000740,0.00003230,0.00000157,-0.00027859,-0.00037127,0.00032
 970,0.00006792,0.00003416,-0.00008271,0.00039984,-0.00005647,-0.000231
 57,0.00002703,-0.00000807,0.00000759,-0.00000919,0.00000079,-0.0000107
 7,-0.00001770,0.00000005,-0.00000465,0.00003825,0.00004033,0.00003723,
 -0.00002770,-0.00004969,-0.00003665,-0.00001303,-0.00001565,-0.0000070
 0,0.00005316,0.00000819,-0.00001784,-0.00002726,0.00000961,0.00000487,
 -0.00003840,-0.00001976,0.00001167,-0.00056508,0.00026342,-0.00005042,
 0.00029210,-0.00029625,-0.00005899,0.00036536,-0.00002044,0.00024059,-
 0.00017875,-0.00002454,0.00000827,0.00003035,0.00004298,0.00000405,0.0
 0021485,-0.00001148,-0.00004276,-0.15245879,-0.23001855,-0.22765842,0.
 13359163,0.21432208,0.00034513,-0.00080558,0.00079425,0.00003422,-0.00
 035000,0.00034924,0.00044097,0.00010234,-0.00028449,-0.00112608,-0.000
 70023,0.00114931,0.00079223,0.00046379,-0.00121624,0.00000324,0.000018
 42,0.00000060,-0.00000234,0.00001214,0.00001804,0.00157987,0.00040930,
 -0.00049499,-0.00041283,0.00026163,-0.00059781,-0.00011507,0.00038499,
 -0.00033017,-0.00000297,-0.00000837,0.00009285,-0.00111729,-0.00001276
 ,0.00161697,0.00055632,0.00007169,0.00047431,-0.00067184,-0.00007881,-
 0.00030618,-0.00009777,-0.00004787,-0.00006403,0.00002158,-0.00000384,
 -0.00002520,-0.00000790,-0.00000025,0.00000803,-0.00001800,0.00000657,
 0.00001427,0.00009636,0.00009643,-0.00001880,-0.00004064,-0.00002802,0
 .00005731,-0.00005074,-0.00007315,-0.00001673,-0.00187462,-0.00098905,
 0.00130234,0.00062290,0.00058597,0.00030533,0.00085262,-0.00032052,-0.
 00049141,-0.00010390,0.00304939,-0.00130124,0.00081082,-0.00398276,0.0
 0158482,-0.00007364,-0.00011315,-0.00002775,-0.00009523,-0.00001929,-0
 .00002632,0.00002271,0.00001148,0.00000136,0.00012282,0.00002607,0.000
 00015,-0.00000958,-0.00000007,-0.00007353,0.00001341,0.00002008,0.0000
 2958,0.00000386,0.00000512,0.00002075,0.00004000,0.00001594,-0.0000239
 6,-0.00001152,-0.00000715,0.00000909,-0.00001560,-0.00000328,0.0000104
 2,0.00001874,0.00001285,-0.00005295,-0.00000497,-0.00000473,0.00001441
 ,-0.00003192,-0.00000542,0.00003239,-0.00036936,-0.00001663,0.00002821
 ,0.00028582,-0.00000303,-0.00002742,0.00012283,-0.00000917,-0.00008691
 ,-0.00004907,0.00000802,-0.00006574,0.00001643,-0.00000666,0.00001440,
 0.00003732,-0.00000925,0.00004450,-0.00071518,0.00042623,-0.00005319,0
 .00016819,-0.00011400,-0.00007729,0.00030260,-0.00027520,0.00028346,0.
 00003000,0.00000537,-0.00003458,-0.00001971,-0.00000880,0.00002715,-0.
 00001050,-0.00000942,0.00001785,0.00009232,0.00000981,-0.00011153,-0.0
 0004031,0.00003098,0.00010713,-0.00002036,-0.00001539,0.00003217,-0.00
 007882,-0.00005150,-0.00005913,0.00004172,0.00000558,0.00002823,0.0000
 4149,0.00003056,0.00005542,0.00006249,0.00001783,-0.00039662,0.0000036
 6,-0.00007755,0.00024799,-0.00019670,0.00014850,0.00012876,0.00000867,
 -0.00000203,-0.00010488,0.00000364,0.00000900,0.00004955,-0.00001762,-
 0.00000619,0.00007555,-0.17918144,-0.18777654,-0.25258058,0.18992202,0
 .20921944,0.27087120,0.00001683,-0.00326198,0.00243469,0.00033738,-0.0
 0260205,0.00248759,0.00430060,0.00185135,-0.00247478,-0.01211283,-0.01
 044072,0.01049579,-0.00014653,0.00455462,-0.00372242,-0.00006011,0.000
 10638,-0.00014367,-0.00006877,0.00001768,0.00001587,0.00911982,0.00413
 411,-0.00711986,-0.00088824,0.00251097,-0.00162965,-0.00072377,0.00216
 724,-0.00176837,-0.00048681,-0.00024900,0.00059568,0.00177310,-0.00209
 810,0.00173335,-0.00225950,0.00003455,-0.00034674,0.00304459,0.0012122
 2,-0.00249170,0.00021772,0.00023024,-0.00023465,0.00035856,-0.00000073
 ,0.00006985,-0.00009862,0.00003231,-0.00004287,-0.00019913,-0.00005617
 ,-0.00005530,-0.00032152,0.00018633,0.00020463,0.00012645,-0.00006466,
 -0.00014724,0.00027211,0.00005822,0.00000945,-0.00118612,-0.00002153,0
 .00039030,0.00082117,0.00012770,0.00024098,0.00037899,-0.00014650,0.00
 008966,-0.00213894,-0.00403790,-0.00025492,0.00225930,0.00650875,0.001
 21015,0.00039652,-0.00009955,0.00023181,0.00008225,-0.00003559,-0.0002
 2675,-0.00003187,0.00000537,0.00007475,-0.00003711,0.00002962,0.000175
 20,0.00024286,0.00030067,-0.00033150,-0.00007562,-0.00001098,0.0001267
 3,-0.00005657,-0.00011820,0.00001475,0.00004874,0.00013855,0.00029540,
 0.00000015,-0.00008240,-0.00009347,-0.00007141,-0.00004167,-0.00015043
 ,0.00001464,0.00028036,0.00002830,-0.00001503,-0.00006342,-0.00000438,
 0.00007105,-0.00020209,-0.00007399,-0.00016611,-0.00009363,-0.00040432
 ,0.00021152,0.00010064,0.00020450,0.00004009,-0.00002902,0.00003331,0.
 00015530,-0.00020246,-0.00024797,-0.00008901,0.00006135,0.00003890,-0.
 00007614,0.00004571,0.00019769,-0.00051437,-0.00001183,-0.00034202,0.0
 0016831,-0.00000003,0.00005897,0.00031213,0.00012115,0.00028462,0.0002
 4078,0.00027375,0.00015131,-0.00004117,-0.00012789,-0.00012879,-0.0001
 6085,-0.00023787,-0.00003052,-0.00049484,0.00042712,0.00033064,0.00033
 131,-0.00055486,-0.00037057,0.00017539,-0.00008303,-0.00002956,-0.0000
 4898,0.00022123,-0.00019919,0.00002710,-0.00011330,0.00010612,-0.00001
 062,-0.00021597,0.00016833,-0.00047385,-0.00076363,-0.00029555,0.00032
 808,-0.00002668,-0.00001341,0.00052946,0.00092024,0.00006899,0.0000045
 5,-0.00033021,-0.00011679,-0.00009307,0.00021796,0.00008295,0.00006557
 ,0.00016894,0.00007128,-0.20771918,0.17471392,-0.17958865,-0.01163582,
 0.01598420,-0.01203544,0.21626894,-0.00057080,-0.00038239,0.00059056,-
 0.00014794,0.00101652,-0.00078258,-0.00107602,-0.00058865,0.00111873,0
 .00036111,0.00517739,-0.00344132,0.00030598,-0.00114141,0.00018494,-0.
 00001261,-0.00005928,0.00003760,0.00008651,-0.00000753,-0.00000409,-0.
 00046980,-0.00805772,0.00261549,0.00025029,-0.00016324,0.00004245,0.00
 076613,-0.00058627,0.00030490,0.00009229,-0.00007010,-0.00008090,-0.00
 238468,-0.00150520,0.00243108,-0.00059230,-0.00138618,-0.00099520,0.00
 151164,0.00056881,0.00350811,0.00027657,0.00046925,-0.00015370,-0.0000
 3669,-0.00004782,-0.00001025,0.00001027,0.00001240,0.00000456,0.000005
 66,0.00004696,0.00001734,0.00026432,0.00029692,0.00008208,-0.00007769,
 -0.00005401,0.00008000,-0.00009102,-0.00026718,-0.00008852,0.00031982,
 -0.00009068,-0.00042605,-0.00015297,-0.00005209,0.00016056,-0.00015404
 ,0.00027804,0.00004193,-0.00136195,-0.00151703,-0.00113626,0.00316418,
 0.00204423,0.00232382,0.00001109,-0.00095491,0.00036162,-0.00000616,-0
 .00003668,0.00002263,0.00000245,0.00000897,-0.00000244,-0.00000346,0.0
 0001792,-0.00001251,0.00000662,-0.00005228,0.00001623,0.00000347,0.000
 02120,-0.00000401,-0.00000655,0.00002190,0.00000383,0.00004780,-0.0000
 7245,-0.00001386,-0.00002577,0.00002378,0.00000172,0.00000310,0.000036
 50,0.00001435,0.00008303,-0.00002499,-0.00002159,-0.00002077,0.0000012
 4,0.00000325,-0.00010077,0.00001212,0.00002342,0.00004336,-0.00010570,
 0.00003941,-0.00001202,0.00013182,-0.00003588,-0.00002528,0.00003562,0
 .00001023,-0.00003357,-0.00002095,0.00004676,0.00001582,0.00000151,-0.
 00000750,0.00000510,0.00002655,-0.00003483,0.00002452,-0.00023625,0.00
 028860,-0.00003417,0.00002006,-0.00004563,0.00008279,0.00003527,-0.000
 34983,0.00001234,-0.00007841,-0.00003268,-0.00002619,0.00002948,0.0000
 1752,-0.00000440,0.00005322,0.00000882,0.00012760,0.00004225,-0.000104
 12,-0.00008356,-0.00000037,0.00008142,-0.00002278,-0.00002817,0.000014
 41,0.00004319,-0.00002556,-0.00001396,-0.00002740,0.00002695,-0.000003
 95,-0.00002726,0.00000678,0.00001617,-0.00053709,0.00048898,0.00028052
 ,0.00006672,-0.00026916,-0.00023113,0.00057178,-0.00055939,0.00005311,
 -0.00021010,0.00003821,0.00006048,0.00005433,0.00000895,-0.00002158,0.
 00025132,-0.00005259,-0.00008560,0.21159512,-0.23758989,0.16926046,-0.
 02039300,0.01541459,-0.01905447,-0.19165704,0.22938859,0.00072146,0.00
 079678,-0.00102502,0.00000975,-0.00047849,0.00058865,0.00050610,0.0005
 8344,-0.00001506,0.00154793,-0.00202363,0.00205308,-0.00079653,-0.0005
 0776,-0.00026069,-0.00003367,-0.00003544,-0.00002969,-0.00005587,0.000
 01437,0.00003064,-0.00224535,0.00192630,-0.00671629,-0.00021622,-0.000
 36902,0.00013913,-0.00069986,0.00032347,-0.00006693,0.00003209,0.00014
 889,0.00000149,0.00228877,0.00264066,-0.00057590,0.00134399,-0.0019450
 0,0.00193771,-0.00327332,0.00418859,-0.00241457,-0.00070865,-0.0002328
 1,-0.00033092,-0.00002829,0.00000447,-0.00005159,0.00000092,-0.0000087
 9,0.00002190,0.00001044,0.00001111,0.00003240,0.00016910,0.00028608,-0
 .00029461,-0.00003743,-0.00000767,0.00023899,-0.00004642,-0.00019707,0
 .00012815,-0.00012324,-0.00046716,0.00075519,0.00022059,0.00030678,-0.
 00025422,0.00025799,0.00002598,-0.00050065,-0.00092224,-0.00230175,0.0
 0007482,0.00170690,0.00361259,-0.00007837,0.00011252,-0.00012335,0.000
 40462,-0.00008403,-0.00000083,0.00001945,0.00002208,0.00000520,-0.0000
 1339,0.00009437,0.00000893,-0.00003154,-0.00007172,-0.00004573,0.00000
 324,0.00002547,0.00001025,-0.00000072,0.00001918,0.00001966,0.00001840
 ,0.00008639,0.00004518,-0.00011329,-0.00001144,-0.00001934,0.00003759,
 -0.00002603,-0.00000699,0.00004965,-0.00006338,-0.00002804,-0.00006424
 ,0.00001273,0.00000438,0.00002341,0.00004737,0.00002557,0.00005458,-0.
 00021184,-0.00003280,0.00011027,0.00016389,0.00006212,-0.00010825,0.00
 005048,-0.00000017,-0.00006042,-0.00007171,0.00003314,-0.00001639,0.00
 002984,-0.00001513,0.00000795,0.00004312,-0.00001638,0.00000607,-0.000
 34699,0.00019027,0.00035737,0.00000428,-0.00004779,-0.00010401,0.00032
 392,-0.00034499,-0.00011717,-0.00000038,-0.00001555,-0.00009653,-0.000
 02367,-0.00001100,0.00009073,0.00002558,0.00001373,0.00003434,-0.00008
 780,-0.00014898,-0.00024723,0.00006152,0.00019082,0.00011774,0.0000214
 6,0.00004733,0.00003348,-0.00006959,-0.00007054,0.00001849,0.00004134,
 0.00001541,-0.00000018,0.00005295,0.00006889,-0.00002283,-0.00037264,0
 .00057471,-0.00036753,0.00008846,-0.00034750,0.00007569,0.00008358,-0.
 00021286,0.00054155,-0.00011254,0.00007009,-0.00009031,0.00003956,-0.0
 0002087,0.00004136,0.00012508,-0.00005115,0.00003451,-0.17053700,0.128
 08106,-0.15008502,-0.02173170,0.02241940,-0.01579558,0.19126976,-0.157
 32501,0.17226635\\-0.05082258,0.00936244,0.00806200,0.00818212,0.02246
 305,-0.03169305,0.01906460,0.01632939,0.00032185,-0.09314621,-0.079034
 47,0.06429678,0.02463244,0.00642310,-0.00232023,0.00719773,-0.01820002
 ,-0.00204376,-0.00338571,0.01181830,-0.00149722,0.06637149,0.05806340,
 -0.05969893,0.00689695,-0.00560875,0.00146508,0.03795986,-0.00589422,-
 0.01501940,-0.00274117,-0.01985073,0.02443079,-0.02768876,0.00167996,-
 0.00071920,0.01900043,0.01164191,0.00012633,-0.00908287,-0.00169831,0.
 00774447,-0.01307187,-0.00017702,-0.00754312,-0.00901907,0.01222947,0.
 02237874,-0.00919364,0.00342372,-0.01119821,0.00906592,-0.00943140,-0.
 01227767,-0.00350508,0.00547726,-0.02796898,-0.00580531,0.00198808,0.0
 1209853,0.01910829,0.00699737,0.00372575,0.01639627,-0.00865054,0.0097
 4751,-0.00257289,-0.01247168,0.00111362,-0.00221171,0.01694046,-0.0019
 6218,-0.00833198,-0.02166595,0.01518057,0.01032711,0.01209039,0.000476
 50,0.00084483,-0.00716660,-0.02237422,-0.00955149,-0.00227600,-0.00785
 484,-0.00535226,-0.00202214,0.00980924,0.01873388,-0.00026579,-0.00364
 376,0.01165419,0.00414325,-0.00682409,-0.00687013,0.01093132,0.0112054
 3,-0.00997687,-0.01949586,-0.00290237,0.01517840,0.00209052,-0.0016514
 2,-0.00534738,-0.02367942,-0.00363403,-0.01379476,0.01054278,-0.000445
 86,-0.01243335,0.00040609,0.01896557,-0.00569932,-0.00625012,-0.012801
 44,0.01882809,-0.00065426,-0.00600621,-0.01278669,-0.00707826,0.008122
 18,-0.00008310,0.01216896,-0.00917920,0.00478812,-0.00703977,0.0083190
 4,0.00830917,0.01528867,-0.02034311,-0.02677466,0.00642409,0.00642715,
 0.00186752,-0.00712643,0.00931133,0.00154316,-0.00755855,0.00535523,0.
 00690752,0.00699800,0.01584359,-0.00292825,0.00217675,-0.01622835,-0.0
 1170291,0.00146919,0.00910685,0.00540493,-0.00496091,-0.01340885,0.003
 68186,-0.01046445,0.00834453,-0.01035393,-0.00648350,-0.00715181,0.007
 85282,0.01345714,0.01087170,-0.00137291,-0.02675041,0.00366244,0.01438
 658,-0.01239464,0.01601859,-0.01557544,0.00808181,-0.00098968,0.005775
 43,0.00457498,-0.00815337,-0.00058979,-0.00108700,0.01374681,0.0110231
 2,0.01329101,0.00641878,-0.00145459,-0.00534524,-0.00994925,-0.0083941
 5,0.01420970,0.00452404,-0.00888967,-0.00348435,-0.00031979,0.01514401
 ,-0.00289061,-0.00523365,0.00713120,0.00421733,-0.00267698,0.01231785,
 0.00372722,0.00886372,-0.01232558,0.00294218,-0.00478789\\\@


 CHEMISTRY BEGAN BY SAYING IT WOULD CHANGE THE BASER
 METALS INTO GOLD.  BY NOT DOING THAT IT HAS DONE MUCH
 GREATER THINGS.  --  RALPH WALDO EMERSON
 Job cpu time:       1 days  4 hours 18 minutes 21.3 seconds.
 Elapsed time:       0 days  0 hours 53 minutes 35.3 seconds.
 File lengths (MBytes):  RWF=   2997 Int=      0 D2E=      0 Chk=     34 Scr=      1
 Normal termination of Gaussian 16 at Sat Sep 17 03:25:46 2022.
