 Entering Gaussian System, Link 0=/shared/gaussian/g16.b01/AVX2/g16/g16
 Input=snap003.S0.com
 Output=snap003.S0.log
 Initial command:
 /shared/gaussian/g16.b01/AVX2/g16/l1.exe "/scratch/giacomo/Gauscr/Gau-13200.inp" -scrdir="/scratch/giacomo/Gauscr/"
 Entering Link 1 = /shared/gaussian/g16.b01/AVX2/g16/l1.exe PID=     13201.
  
 Copyright (c) 1988-2017, Gaussian, Inc.  All Rights Reserved.
  
 This is part of the Gaussian(R) 16 program.  It is based on
 the Gaussian(R) 09 system (copyright 2009, Gaussian, Inc.),
 the Gaussian(R) 03 system (copyright 2003, Gaussian, Inc.),
 the Gaussian(R) 98 system (copyright 1998, Gaussian, Inc.),
 the Gaussian(R) 94 system (copyright 1995, Gaussian, Inc.),
 the Gaussian 92(TM) system (copyright 1992, Gaussian, Inc.),
 the Gaussian 90(TM) system (copyright 1990, Gaussian, Inc.),
 the Gaussian 88(TM) system (copyright 1988, Gaussian, Inc.),
 the Gaussian 86(TM) system (copyright 1986, Carnegie Mellon
 University), and the Gaussian 82(TM) system (copyright 1983,
 Carnegie Mellon University). Gaussian is a federally registered
 trademark of Gaussian, Inc.
  
 This software contains proprietary and confidential information,
 including trade secrets, belonging to Gaussian, Inc.
  
 This software is provided under written license and may be
 used, copied, transmitted, or stored only in accord with that
 written license.
  
 The following legend is applicable only to US Government
 contracts under FAR:
  
                    RESTRICTED RIGHTS LEGEND
  
 Use, reproduction and disclosure by the US Government is
 subject to restrictions as set forth in subparagraphs (a)
 and (c) of the Commercial Computer Software - Restricted
 Rights clause in FAR 52.227-19.
  
 Gaussian, Inc.
 340 Quinnipiac St., Bldg. 40, Wallingford CT 06492
  
  
 ---------------------------------------------------------------
 Warning -- This program may not be used in any manner that
 competes with the business of Gaussian, Inc. or will provide
 assistance to any competitor of Gaussian, Inc.  The licensee
 of this program is prohibited from giving any competitor of
 Gaussian, Inc. access to this program.  By using this program,
 the user acknowledges that Gaussian, Inc. is engaged in the
 business of creating and licensing software in the field of
 computational chemistry and represents and warrants to the
 licensee that it is not a competitor of Gaussian, Inc. and that
 it will not use this program in any manner prohibited above.
 ---------------------------------------------------------------
  

 Cite this work as:
 Gaussian 16, Revision B.01,
 M. J. Frisch, G. W. Trucks, H. B. Schlegel, G. E. Scuseria, 
 M. A. Robb, J. R. Cheeseman, G. Scalmani, V. Barone, 
 G. A. Petersson, H. Nakatsuji, X. Li, M. Caricato, A. V. Marenich, 
 J. Bloino, B. G. Janesko, R. Gomperts, B. Mennucci, H. P. Hratchian, 
 J. V. Ortiz, A. F. Izmaylov, J. L. Sonnenberg, D. Williams-Young, 
 F. Ding, F. Lipparini, F. Egidi, J. Goings, B. Peng, A. Petrone, 
 T. Henderson, D. Ranasinghe, V. G. Zakrzewski, J. Gao, N. Rega, 
 G. Zheng, W. Liang, M. Hada, M. Ehara, K. Toyota, R. Fukuda, 
 J. Hasegawa, M. Ishida, T. Nakajima, Y. Honda, O. Kitao, H. Nakai, 
 T. Vreven, K. Throssell, J. A. Montgomery, Jr., J. E. Peralta, 
 F. Ogliaro, M. J. Bearpark, J. J. Heyd, E. N. Brothers, K. N. Kudin, 
 V. N. Staroverov, T. A. Keith, R. Kobayashi, J. Normand, 
 K. Raghavachari, A. P. Rendell, J. C. Burant, S. S. Iyengar, 
 J. Tomasi, M. Cossi, J. M. Millam, M. Klene, C. Adamo, R. Cammi, 
 J. W. Ochterski, R. L. Martin, K. Morokuma, O. Farkas, 
 J. B. Foresman, and D. J. Fox, Gaussian, Inc., Wallingford CT, 2016.
 
 ******************************************
 Gaussian 16:  ES64L-G16RevB.01 20-Dec-2017
                16-Sep-2022 
 ******************************************
 %Nproc=32
 Will use up to   32 processors via shared memory.
 %Mem=120Gb
 %chk=temp.chk
 -------------------------------------------
 #p cam-b3lyp/6-31+G(d,p) nosymm charge Freq
 -------------------------------------------
 1/10=4,18=10,28=-2,30=1,38=1,125=101/1,3;
 2/12=2,15=1,17=6,18=5,40=1/2;
 3/5=1,6=6,7=111,11=2,25=1,30=1,71=2,74=-40,140=1/1,2,3;
 4//1;
 5/5=2,38=5,98=1/2;
 8/6=4,10=90,11=11/1;
 11/6=1,8=1,9=11,15=111,16=1,31=1/1,2,10;
 10/6=1,31=1/2;
 6/7=2,8=2,9=2,10=2,28=1/1;
 7/8=1,10=1,16=-2,25=1,30=1/1,2,3,16;
 1/10=4,18=10,28=-2,30=1/3;
 99//99;
 Leave Link    1 at Fri Sep 16 20:28:46 2022, MaxMem= 16106127360 cpu:               2.0 elap:               0.1
 (Enter /shared/gaussian/g16.b01/AVX2/g16/l101.exe)
 ------------------------------------------
 Calculation for S0 with freq for abs spect
 ------------------------------------------
 Symbolic Z-matrix:
 Charge =  0 Multiplicity = 1
 C                     16.00536   16.04141   17.82116 
 C                     17.16258   17.71501   16.45312 
 C                     16.95422   17.04893   15.29144 
 C                     16.1789   15.79877   15.34321 
 N                     15.86974   15.43355   16.62581 
 H                     17.8195   18.63712   16.61301 
 H                     17.24264   17.33473   14.30091 
 O                     16.07957   15.07251   14.41774 
 O                     15.57359   15.59074   18.89067 
 N                     16.63237   17.28584   17.65745 
 H                     16.63126   17.93518   18.47242 
 H                     15.37208   14.55446   16.65498 
 O                     12.16983   16.27176   14.25805 
 H                     12.40456   15.5371   13.69112 
 H                     11.80725   16.9279   13.66285 
 O                     13.29232   16.81231   20.24256 
 H                     13.78373   16.25808   19.63628 
 H                     13.44466   17.70404   19.92974 
 O                     13.42549   17.55329   16.63463 
 H                     13.47724   16.86586   15.97056 
 H                     14.11082   18.17521   16.39016 
 O                     12.38797   19.70964   17.88206 
 H                     12.79688   18.88509   17.61911 
 H                     11.5216   19.68819   17.47564 
 O                     14.8209   19.47881   15.19722 
 H                     15.50797   19.33977   14.54542 
 H                     15.19956   20.10378   15.81549 
 O                     18.73632   20.15831   14.69627 
 H                     19.1525   19.38707   14.3113 
 H                     18.94018   20.10025   15.6297 
 O                     18.62431   15.39769   12.42848 
 H                     17.89276   15.8468   12.00495 
 H                     19.36898   15.55067   11.84685 
 O                     19.86076   17.80635   13.85236 
 H                     19.55536   16.95608   13.53613 
 H                     20.41527   17.59774   14.60417 
 O                     16.13704   15.85862   21.75974 
 H                     16.57171   16.46167   22.36276 
 H                     15.95833   16.38542   20.98079 
 O                     18.22556   20.34899   18.25008 
 H                     18.48753   19.66906   18.87081 
 H                     19.0427   20.61926   17.8312 
 O                     18.26739   13.26089   14.42413 
 H                     17.59493   13.91841   14.24608 
 H                     19.09527   13.72957   14.31839 
 O                     19.19846   17.26185   19.53856 
 H                     19.33223   16.94305   20.43114 
 H                     19.25097   16.47707   18.99303 
 O                     17.21373   13.08248   18.26445 
 H                     17.29384   13.44303   19.14753 
 H                     16.48088   12.46934   18.32114 
 O                     15.8454   15.72811   11.45928 
 H                     14.99552   16.13418   11.6297 
 H                     16.05115   15.25472   12.26539 
 O                     20.63524   17.31412   16.51172 
 H                     21.47091   17.05911   16.90268 
 H                     20.07113   16.55016   16.63162 
 O                     19.20864   15.22932   17.24514 
 H                     19.94633   14.64023   17.40332 
 H                     18.46299   14.79745   17.66195 
 O                     20.49703   20.00632   16.85131 
 H                     20.57836   19.08082   16.62095 
 H                     21.372    20.36707   16.70806 
 O                     18.09541   11.43764   16.40358 
 H                     18.06865   12.02174   15.64573 
 H                     17.95111   12.01273   17.15503 
 O                     16.26213   19.01886   20.10557 
 H                     16.71325   19.26565   20.91292 
 H                     15.45892   19.53951   20.11071 
 O                     16.09779   21.36842   16.82754 
 H                     16.40119   22.25057   16.61308 
 H                     16.65078   21.09584   17.55976 
 O                     14.8873   12.6306   13.87095 
 H                     15.30158   13.46129   14.10455 
 H                     15.50621   12.21407   13.27121 
 O                     15.83124   18.68664   12.50491 
 H                     14.92465   18.74104   12.20264 
 H                     16.03716   19.57145   12.80648 
 
 ITRead=  0  0  0  0  0  0  0  0  0  0  0  0  0  0  0  0  0  0  0  0
 ITRead=  0  0  0  0  0  0  0  0  0  0  0  0  0  0  0  0  0  0  0  0
 ITRead=  0  0  0  0  0  0  0  0  0  0  0  0  0  0  0  0  0  0  0  0
 ITRead=  0  0  0  0  0  0  0  0  0  0  0  0  0  0  0  0  0  0
 MicOpt= -1 -1 -1 -1 -1 -1 -1 -1 -1 -1 -1 -1 -1 -1 -1 -1 -1 -1 -1 -1
 MicOpt= -1 -1 -1 -1 -1 -1 -1 -1 -1 -1 -1 -1 -1 -1 -1 -1 -1 -1 -1 -1
 MicOpt= -1 -1 -1 -1 -1 -1 -1 -1 -1 -1 -1 -1 -1 -1 -1 -1 -1 -1 -1 -1
 MicOpt= -1 -1 -1 -1 -1 -1 -1 -1 -1 -1 -1 -1 -1 -1 -1 -1 -1 -1
 NAtoms=     78 NQM=       78 NQMF=       0 NMMI=      0 NMMIF=      0
                NMic=       0 NMicF=      0.
                    Isotopes and Nuclear Properties:
 (Nuclear quadrupole moments (NQMom) in fm**2, nuclear magnetic moments (NMagM)
  in nuclear magnetons)

  Atom         1           2           3           4           5           6           7           8           9          10
 IAtWgt=          12          12          12          12          14           1           1          16          16          14
 AtmWgt=  12.0000000  12.0000000  12.0000000  12.0000000  14.0030740   1.0078250   1.0078250  15.9949146  15.9949146  14.0030740
 NucSpn=           0           0           0           0           2           1           1           0           0           2
 AtZEff=  -0.0000000  -0.0000000  -0.0000000  -0.0000000  -0.0000000  -0.0000000  -0.0000000  -0.0000000  -0.0000000  -0.0000000
 NQMom=    0.0000000   0.0000000   0.0000000   0.0000000   2.0440000   0.0000000   0.0000000   0.0000000   0.0000000   2.0440000
 NMagM=    0.0000000   0.0000000   0.0000000   0.0000000   0.4037610   2.7928460   2.7928460   0.0000000   0.0000000   0.4037610
 AtZNuc=   6.0000000   6.0000000   6.0000000   6.0000000   7.0000000   1.0000000   1.0000000   8.0000000   8.0000000   7.0000000

  Atom        11          12          13          14          15          16          17          18          19          20
 IAtWgt=           1           1          16           1           1          16           1           1          16           1
 AtmWgt=   1.0078250   1.0078250  15.9949146   1.0078250   1.0078250  15.9949146   1.0078250   1.0078250  15.9949146   1.0078250
 NucSpn=           1           1           0           1           1           0           1           1           0           1
 AtZEff=  -0.0000000  -0.0000000  -0.0000000  -0.0000000  -0.0000000  -0.0000000  -0.0000000  -0.0000000  -0.0000000  -0.0000000
 NQMom=    0.0000000   0.0000000   0.0000000   0.0000000   0.0000000   0.0000000   0.0000000   0.0000000   0.0000000   0.0000000
 NMagM=    2.7928460   2.7928460   0.0000000   2.7928460   2.7928460   0.0000000   2.7928460   2.7928460   0.0000000   2.7928460
 AtZNuc=   1.0000000   1.0000000   8.0000000   1.0000000   1.0000000   8.0000000   1.0000000   1.0000000   8.0000000   1.0000000

  Atom        21          22          23          24          25          26          27          28          29          30
 IAtWgt=           1          16           1           1          16           1           1          16           1           1
 AtmWgt=   1.0078250  15.9949146   1.0078250   1.0078250  15.9949146   1.0078250   1.0078250  15.9949146   1.0078250   1.0078250
 NucSpn=           1           0           1           1           0           1           1           0           1           1
 AtZEff=  -0.0000000  -0.0000000  -0.0000000  -0.0000000  -0.0000000  -0.0000000  -0.0000000  -0.0000000  -0.0000000  -0.0000000
 NQMom=    0.0000000   0.0000000   0.0000000   0.0000000   0.0000000   0.0000000   0.0000000   0.0000000   0.0000000   0.0000000
 NMagM=    2.7928460   0.0000000   2.7928460   2.7928460   0.0000000   2.7928460   2.7928460   0.0000000   2.7928460   2.7928460
 AtZNuc=   1.0000000   8.0000000   1.0000000   1.0000000   8.0000000   1.0000000   1.0000000   8.0000000   1.0000000   1.0000000

  Atom        31          32          33          34          35          36          37          38          39          40
 IAtWgt=          16           1           1          16           1           1          16           1           1          16
 AtmWgt=  15.9949146   1.0078250   1.0078250  15.9949146   1.0078250   1.0078250  15.9949146   1.0078250   1.0078250  15.9949146
 NucSpn=           0           1           1           0           1           1           0           1           1           0
 AtZEff=  -0.0000000  -0.0000000  -0.0000000  -0.0000000  -0.0000000  -0.0000000  -0.0000000  -0.0000000  -0.0000000  -0.0000000
 NQMom=    0.0000000   0.0000000   0.0000000   0.0000000   0.0000000   0.0000000   0.0000000   0.0000000   0.0000000   0.0000000
 NMagM=    0.0000000   2.7928460   2.7928460   0.0000000   2.7928460   2.7928460   0.0000000   2.7928460   2.7928460   0.0000000
 AtZNuc=   8.0000000   1.0000000   1.0000000   8.0000000   1.0000000   1.0000000   8.0000000   1.0000000   1.0000000   8.0000000

  Atom        41          42          43          44          45          46          47          48          49          50
 IAtWgt=           1           1          16           1           1          16           1           1          16           1
 AtmWgt=   1.0078250   1.0078250  15.9949146   1.0078250   1.0078250  15.9949146   1.0078250   1.0078250  15.9949146   1.0078250
 NucSpn=           1           1           0           1           1           0           1           1           0           1
 AtZEff=  -0.0000000  -0.0000000  -0.0000000  -0.0000000  -0.0000000  -0.0000000  -0.0000000  -0.0000000  -0.0000000  -0.0000000
 NQMom=    0.0000000   0.0000000   0.0000000   0.0000000   0.0000000   0.0000000   0.0000000   0.0000000   0.0000000   0.0000000
 NMagM=    2.7928460   2.7928460   0.0000000   2.7928460   2.7928460   0.0000000   2.7928460   2.7928460   0.0000000   2.7928460
 AtZNuc=   1.0000000   1.0000000   8.0000000   1.0000000   1.0000000   8.0000000   1.0000000   1.0000000   8.0000000   1.0000000

  Atom        51          52          53          54          55          56          57          58          59          60
 IAtWgt=           1          16           1           1          16           1           1          16           1           1
 AtmWgt=   1.0078250  15.9949146   1.0078250   1.0078250  15.9949146   1.0078250   1.0078250  15.9949146   1.0078250   1.0078250
 NucSpn=           1           0           1           1           0           1           1           0           1           1
 AtZEff=  -0.0000000  -0.0000000  -0.0000000  -0.0000000  -0.0000000  -0.0000000  -0.0000000  -0.0000000  -0.0000000  -0.0000000
 NQMom=    0.0000000   0.0000000   0.0000000   0.0000000   0.0000000   0.0000000   0.0000000   0.0000000   0.0000000   0.0000000
 NMagM=    2.7928460   0.0000000   2.7928460   2.7928460   0.0000000   2.7928460   2.7928460   0.0000000   2.7928460   2.7928460
 AtZNuc=   1.0000000   8.0000000   1.0000000   1.0000000   8.0000000   1.0000000   1.0000000   8.0000000   1.0000000   1.0000000

  Atom        61          62          63          64          65          66          67          68          69          70
 IAtWgt=          16           1           1          16           1           1          16           1           1          16
 AtmWgt=  15.9949146   1.0078250   1.0078250  15.9949146   1.0078250   1.0078250  15.9949146   1.0078250   1.0078250  15.9949146
 NucSpn=           0           1           1           0           1           1           0           1           1           0
 AtZEff=  -0.0000000  -0.0000000  -0.0000000  -0.0000000  -0.0000000  -0.0000000  -0.0000000  -0.0000000  -0.0000000  -0.0000000
 NQMom=    0.0000000   0.0000000   0.0000000   0.0000000   0.0000000   0.0000000   0.0000000   0.0000000   0.0000000   0.0000000
 NMagM=    0.0000000   2.7928460   2.7928460   0.0000000   2.7928460   2.7928460   0.0000000   2.7928460   2.7928460   0.0000000
 AtZNuc=   8.0000000   1.0000000   1.0000000   8.0000000   1.0000000   1.0000000   8.0000000   1.0000000   1.0000000   8.0000000

  Atom        71          72          73          74          75          76          77          78
 IAtWgt=           1           1          16           1           1          16           1           1
 AtmWgt=   1.0078250   1.0078250  15.9949146   1.0078250   1.0078250  15.9949146   1.0078250   1.0078250
 NucSpn=           1           1           0           1           1           0           1           1
 AtZEff=  -0.0000000  -0.0000000  -0.0000000  -0.0000000  -0.0000000  -0.0000000  -0.0000000  -0.0000000
 NQMom=    0.0000000   0.0000000   0.0000000   0.0000000   0.0000000   0.0000000   0.0000000   0.0000000
 NMagM=    2.7928460   2.7928460   0.0000000   2.7928460   2.7928460   0.0000000   2.7928460   2.7928460
 AtZNuc=   1.0000000   1.0000000   8.0000000   1.0000000   1.0000000   8.0000000   1.0000000   1.0000000
 Background charge distribution read from input stream:
 Point Charges:
 XYZ=   15.3856   21.5328    7.8949 Q=   -0.8340 A=    0.0000 R=    0.0000 C=    0.0000
 XYZ=   15.1808   21.8569    8.7720 Q=    0.4170 A=    0.0000 R=    0.0000 C=    0.0000
 XYZ=   15.4325   20.5821    7.9953 Q=    0.4170 A=    0.0000 R=    0.0000 C=    0.0000
 XYZ=    1.9163   18.3004   17.0491 Q=   -0.8340 A=    0.0000 R=    0.0000 C=    0.0000
 XYZ=    2.5627   18.6651   16.4446 Q=    0.4170 A=    0.0000 R=    0.0000 C=    0.0000
 XYZ=    1.8134   18.9714   17.7239 Q=    0.4170 A=    0.0000 R=    0.0000 C=    0.0000
 XYZ=   23.4551    8.2544    9.1380 Q=   -0.8340 A=    0.0000 R=    0.0000 C=    0.0000
 XYZ=   24.3310    8.3229    8.7582 Q=    0.4170 A=    0.0000 R=    0.0000 C=    0.0000
 XYZ=   23.0875    7.4595    8.7517 Q=    0.4170 A=    0.0000 R=    0.0000 C=    0.0000
 XYZ=    5.4575   12.2771   14.0697 Q=   -0.8340 A=    0.0000 R=    0.0000 C=    0.0000
 XYZ=    4.9549   11.5008   13.8229 Q=    0.4170 A=    0.0000 R=    0.0000 C=    0.0000
 XYZ=    6.3720   12.0130   13.9692 Q=    0.4170 A=    0.0000 R=    0.0000 C=    0.0000
 XYZ=   27.7242   17.6736   12.5303 Q=   -0.8340 A=    0.0000 R=    0.0000 C=    0.0000
 XYZ=   28.2113   17.5814   13.3491 Q=    0.4170 A=    0.0000 R=    0.0000 C=    0.0000
 XYZ=   28.3640   18.0199   11.9082 Q=    0.4170 A=    0.0000 R=    0.0000 C=    0.0000
 XYZ=   23.7900   24.0372   13.4188 Q=   -0.8340 A=    0.0000 R=    0.0000 C=    0.0000
 XYZ=   23.6093   23.6463   12.5639 Q=    0.4170 A=    0.0000 R=    0.0000 C=    0.0000
 XYZ=   22.9455   24.0298   13.8694 Q=    0.4170 A=    0.0000 R=    0.0000 C=    0.0000
 XYZ=   16.4765   12.2237    4.1445 Q=   -0.8340 A=    0.0000 R=    0.0000 C=    0.0000
 XYZ=   16.1566   13.0601    3.8066 Q=    0.4170 A=    0.0000 R=    0.0000 C=    0.0000
 XYZ=   16.9712   12.4558    4.9304 Q=    0.4170 A=    0.0000 R=    0.0000 C=    0.0000
 XYZ=   11.7534   25.7354    6.3190 Q=   -0.8340 A=    0.0000 R=    0.0000 C=    0.0000
 XYZ=   11.3908   24.8771    6.0997 Q=    0.4170 A=    0.0000 R=    0.0000 C=    0.0000
 XYZ=   12.3061   25.9607    5.5707 Q=    0.4170 A=    0.0000 R=    0.0000 C=    0.0000
 XYZ=   25.2225    3.5973   15.8156 Q=   -0.8340 A=    0.0000 R=    0.0000 C=    0.0000
 XYZ=   25.1340    4.4097   15.3173 Q=    0.4170 A=    0.0000 R=    0.0000 C=    0.0000
 XYZ=   25.7129    3.0132   15.2372 Q=    0.4170 A=    0.0000 R=    0.0000 C=    0.0000
 XYZ=   11.3335   22.8276    5.6579 Q=   -0.8340 A=    0.0000 R=    0.0000 C=    0.0000
 XYZ=   11.0558   22.8647    4.7426 Q=    0.4170 A=    0.0000 R=    0.0000 C=    0.0000
 XYZ=   12.2468   22.5433    5.6202 Q=    0.4170 A=    0.0000 R=    0.0000 C=    0.0000
 XYZ=    2.4605   20.6327   18.4704 Q=   -0.8340 A=    0.0000 R=    0.0000 C=    0.0000
 XYZ=    2.4482   21.5488   18.1930 Q=    0.4170 A=    0.0000 R=    0.0000 C=    0.0000
 XYZ=    2.0885   20.6440   19.3523 Q=    0.4170 A=    0.0000 R=    0.0000 C=    0.0000
 XYZ=   12.5899   30.3952   15.2455 Q=   -0.8340 A=    0.0000 R=    0.0000 C=    0.0000
 XYZ=   12.5466   29.5299   15.6523 Q=    0.4170 A=    0.0000 R=    0.0000 C=    0.0000
 XYZ=   11.9555   30.9213   15.7323 Q=    0.4170 A=    0.0000 R=    0.0000 C=    0.0000
 XYZ=   24.1721   13.2734   10.4941 Q=   -0.8340 A=    0.0000 R=    0.0000 C=    0.0000
 XYZ=   23.6807   13.9720   10.9264 Q=    0.4170 A=    0.0000 R=    0.0000 C=    0.0000
 XYZ=   23.6758   13.0888    9.6968 Q=    0.4170 A=    0.0000 R=    0.0000 C=    0.0000
 XYZ=   11.4531   10.2019   16.2740 Q=   -0.8340 A=    0.0000 R=    0.0000 C=    0.0000
 XYZ=   10.7955    9.5186   16.4043 Q=    0.4170 A=    0.0000 R=    0.0000 C=    0.0000
 XYZ=   12.0343    9.8502   15.5996 Q=    0.4170 A=    0.0000 R=    0.0000 C=    0.0000
 XYZ=   16.8834   21.9654   24.5021 Q=   -0.8340 A=    0.0000 R=    0.0000 C=    0.0000
 XYZ=   16.3400   22.3154   25.2081 Q=    0.4170 A=    0.0000 R=    0.0000 C=    0.0000
 XYZ=   17.3679   22.7229   24.1741 Q=    0.4170 A=    0.0000 R=    0.0000 C=    0.0000
 XYZ=   20.1057   28.4107   10.6977 Q=   -0.8340 A=    0.0000 R=    0.0000 C=    0.0000
 XYZ=   20.1057   28.5428   11.6457 Q=    0.4170 A=    0.0000 R=    0.0000 C=    0.0000
 XYZ=   19.2507   28.0238   10.5093 Q=    0.4170 A=    0.0000 R=    0.0000 C=    0.0000
 XYZ=   13.1236    9.5201    4.8418 Q=   -0.8340 A=    0.0000 R=    0.0000 C=    0.0000
 XYZ=   13.6010   10.3035    4.5688 Q=    0.4170 A=    0.0000 R=    0.0000 C=    0.0000
 XYZ=   13.2245    8.9107    4.1106 Q=    0.4170 A=    0.0000 R=    0.0000 C=    0.0000
 XYZ=   20.2898   21.0916   10.4229 Q=   -0.8340 A=    0.0000 R=    0.0000 C=    0.0000
 XYZ=   20.3117   21.3859    9.5124 Q=    0.4170 A=    0.0000 R=    0.0000 C=    0.0000
 XYZ=   19.3668   21.1461   10.6706 Q=    0.4170 A=    0.0000 R=    0.0000 C=    0.0000
 XYZ=   23.7741    8.1529   17.9335 Q=   -0.8340 A=    0.0000 R=    0.0000 C=    0.0000
 XYZ=   23.3453    8.5563   18.6882 Q=    0.4170 A=    0.0000 R=    0.0000 C=    0.0000
 XYZ=   23.4636    7.2474   17.9367 Q=    0.4170 A=    0.0000 R=    0.0000 C=    0.0000
 XYZ=   18.5103   18.1794   23.3265 Q=   -0.8340 A=    0.0000 R=    0.0000 C=    0.0000
 XYZ=   19.2518   17.9677   22.7594 Q=    0.4170 A=    0.0000 R=    0.0000 C=    0.0000
 XYZ=   18.7959   17.9187   24.2022 Q=    0.4170 A=    0.0000 R=    0.0000 C=    0.0000
 XYZ=   15.3140   18.8239    8.3645 Q=   -0.8340 A=    0.0000 R=    0.0000 C=    0.0000
 XYZ=   16.0038   18.6256    8.9979 Q=    0.4170 A=    0.0000 R=    0.0000 C=    0.0000
 XYZ=   15.2211   18.0211    7.8516 Q=    0.4170 A=    0.0000 R=    0.0000 C=    0.0000
 XYZ=   20.4235   20.6911   24.9864 Q=   -0.8340 A=    0.0000 R=    0.0000 C=    0.0000
 XYZ=   19.8249   20.9958   25.6684 Q=    0.4170 A=    0.0000 R=    0.0000 C=    0.0000
 XYZ=   20.7369   19.8439   25.3030 Q=    0.4170 A=    0.0000 R=    0.0000 C=    0.0000
 XYZ=    9.2943    4.8187   23.9328 Q=   -0.8340 A=    0.0000 R=    0.0000 C=    0.0000
 XYZ=    9.6445    5.2002   23.1278 Q=    0.4170 A=    0.0000 R=    0.0000 C=    0.0000
 XYZ=   10.0175    4.3017   24.2877 Q=    0.4170 A=    0.0000 R=    0.0000 C=    0.0000
 XYZ=   23.4230   16.5148   26.4575 Q=   -0.8340 A=    0.0000 R=    0.0000 C=    0.0000
 XYZ=   24.3714   16.4260   26.3636 Q=    0.4170 A=    0.0000 R=    0.0000 C=    0.0000
 XYZ=   23.1960   15.9211   27.1731 Q=    0.4170 A=    0.0000 R=    0.0000 C=    0.0000
 XYZ=   26.6971    7.2572   17.4463 Q=   -0.8340 A=    0.0000 R=    0.0000 C=    0.0000
 XYZ=   27.1037    8.0374   17.8232 Q=    0.4170 A=    0.0000 R=    0.0000 C=    0.0000
 XYZ=   25.7566    7.4038   17.5477 Q=    0.4170 A=    0.0000 R=    0.0000 C=    0.0000
 XYZ=   22.4116   11.7802   23.1258 Q=   -0.8340 A=    0.0000 R=    0.0000 C=    0.0000
 XYZ=   21.7559   12.4526   22.9411 Q=    0.4170 A=    0.0000 R=    0.0000 C=    0.0000
 XYZ=   23.2141   12.1101   22.7218 Q=    0.4170 A=    0.0000 R=    0.0000 C=    0.0000
 XYZ=   26.1987    8.2614   12.6610 Q=   -0.8340 A=    0.0000 R=    0.0000 C=    0.0000
 XYZ=   25.5551    7.8207   12.1062 Q=    0.4170 A=    0.0000 R=    0.0000 C=    0.0000
 XYZ=   25.6743    8.7768   13.2739 Q=    0.4170 A=    0.0000 R=    0.0000 C=    0.0000
 XYZ=   20.1482   16.1553   21.8364 Q=   -0.8340 A=    0.0000 R=    0.0000 C=    0.0000
 XYZ=   20.2080   15.2162   22.0117 Q=    0.4170 A=    0.0000 R=    0.0000 C=    0.0000
 XYZ=   21.0551   16.4340   21.7097 Q=    0.4170 A=    0.0000 R=    0.0000 C=    0.0000
 XYZ=   25.4917   19.2878   15.1608 Q=   -0.8340 A=    0.0000 R=    0.0000 C=    0.0000
 XYZ=   26.2689   19.1725   15.7074 Q=    0.4170 A=    0.0000 R=    0.0000 C=    0.0000
 XYZ=   25.1100   18.4123   15.0985 Q=    0.4170 A=    0.0000 R=    0.0000 C=    0.0000
 XYZ=   17.0989   11.1898   12.8097 Q=   -0.8340 A=    0.0000 R=    0.0000 C=    0.0000
 XYZ=   17.1874   11.1855   11.8566 Q=    0.4170 A=    0.0000 R=    0.0000 C=    0.0000
 XYZ=   17.8589   11.6826   13.1191 Q=    0.4170 A=    0.0000 R=    0.0000 C=    0.0000
 XYZ=   15.6103    4.0037   15.5547 Q=   -0.8340 A=    0.0000 R=    0.0000 C=    0.0000
 XYZ=   14.8062    4.1937   15.0714 Q=    0.4170 A=    0.0000 R=    0.0000 C=    0.0000
 XYZ=   15.4345    4.3116   16.4438 Q=    0.4170 A=    0.0000 R=    0.0000 C=    0.0000
 XYZ=   13.6725   11.6592   24.3377 Q=   -0.8340 A=    0.0000 R=    0.0000 C=    0.0000
 XYZ=   14.4453   12.1859   24.1337 Q=    0.4170 A=    0.0000 R=    0.0000 C=    0.0000
 XYZ=   13.5731   11.0772   23.5843 Q=    0.4170 A=    0.0000 R=    0.0000 C=    0.0000
 XYZ=    3.7920   19.1887   22.2648 Q=   -0.8340 A=    0.0000 R=    0.0000 C=    0.0000
 XYZ=    4.6379   18.7989   22.0439 Q=    0.4170 A=    0.0000 R=    0.0000 C=    0.0000
 XYZ=    3.8133   19.2848   23.2169 Q=    0.4170 A=    0.0000 R=    0.0000 C=    0.0000
 XYZ=   20.8159   13.2646   17.9371 Q=   -0.8340 A=    0.0000 R=    0.0000 C=    0.0000
 XYZ=   21.5311   13.4159   18.5551 Q=    0.4170 A=    0.0000 R=    0.0000 C=    0.0000
 XYZ=   21.2451   12.9249   17.1519 Q=    0.4170 A=    0.0000 R=    0.0000 C=    0.0000
 XYZ=   27.6654    9.4378   21.2384 Q=   -0.8340 A=    0.0000 R=    0.0000 C=    0.0000
 XYZ=   28.2675    8.9501   21.8004 Q=    0.4170 A=    0.0000 R=    0.0000 C=    0.0000
 XYZ=   26.8029    9.2916   21.6269 Q=    0.4170 A=    0.0000 R=    0.0000 C=    0.0000
 XYZ=   24.1276   22.9200   10.7636 Q=   -0.8340 A=    0.0000 R=    0.0000 C=    0.0000
 XYZ=   24.7362   22.2095   10.5614 Q=    0.4170 A=    0.0000 R=    0.0000 C=    0.0000
 XYZ=   23.8468   23.2461    9.9085 Q=    0.4170 A=    0.0000 R=    0.0000 C=    0.0000
 XYZ=    3.7266   18.5501    8.2862 Q=   -0.8340 A=    0.0000 R=    0.0000 C=    0.0000
 XYZ=    2.8015   18.7956    8.2974 Q=    0.4170 A=    0.0000 R=    0.0000 C=    0.0000
 XYZ=    3.9809   18.5305    9.2088 Q=    0.4170 A=    0.0000 R=    0.0000 C=    0.0000
 XYZ=   18.7111   24.6991   27.2219 Q=   -0.8340 A=    0.0000 R=    0.0000 C=    0.0000
 XYZ=   18.7822   25.3952   26.5688 Q=    0.4170 A=    0.0000 R=    0.0000 C=    0.0000
 XYZ=   19.5800   24.2980   27.2407 Q=    0.4170 A=    0.0000 R=    0.0000 C=    0.0000
 XYZ=    5.0140    9.0398    9.0362 Q=   -0.8340 A=    0.0000 R=    0.0000 C=    0.0000
 XYZ=    5.2181    8.8490    8.1207 Q=    0.4170 A=    0.0000 R=    0.0000 C=    0.0000
 XYZ=    5.4880    9.8499    9.2240 Q=    0.4170 A=    0.0000 R=    0.0000 C=    0.0000
 XYZ=   25.9956   24.9096   11.1635 Q=   -0.8340 A=    0.0000 R=    0.0000 C=    0.0000
 XYZ=   26.0945   24.6413   10.2500 Q=    0.4170 A=    0.0000 R=    0.0000 C=    0.0000
 XYZ=   25.4474   24.2298   11.5553 Q=    0.4170 A=    0.0000 R=    0.0000 C=    0.0000
 XYZ=   12.1032   15.7599    6.2715 Q=   -0.8340 A=    0.0000 R=    0.0000 C=    0.0000
 XYZ=   11.5899   15.5257    7.0447 Q=    0.4170 A=    0.0000 R=    0.0000 C=    0.0000
 XYZ=   12.1334   16.7165    6.2843 Q=    0.4170 A=    0.0000 R=    0.0000 C=    0.0000
 XYZ=   22.3056   13.0514    8.5395 Q=   -0.8340 A=    0.0000 R=    0.0000 C=    0.0000
 XYZ=   22.4138   13.3842    7.6485 Q=    0.4170 A=    0.0000 R=    0.0000 C=    0.0000
 XYZ=   22.1593   12.1120    8.4287 Q=    0.4170 A=    0.0000 R=    0.0000 C=    0.0000
 XYZ=   27.4696   23.7370   22.1724 Q=   -0.8340 A=    0.0000 R=    0.0000 C=    0.0000
 XYZ=   26.6366   23.6837   22.6409 Q=    0.4170 A=    0.0000 R=    0.0000 C=    0.0000
 XYZ=   27.3032   23.3014   21.3365 Q=    0.4170 A=    0.0000 R=    0.0000 C=    0.0000
 XYZ=    9.2222   18.3790    5.3065 Q=   -0.8340 A=    0.0000 R=    0.0000 C=    0.0000
 XYZ=   10.0987   18.7462    5.4213 Q=    0.4170 A=    0.0000 R=    0.0000 C=    0.0000
 XYZ=    9.1275   17.7547    6.0259 Q=    0.4170 A=    0.0000 R=    0.0000 C=    0.0000
 XYZ=    8.4691    5.6637   17.0750 Q=   -0.8340 A=    0.0000 R=    0.0000 C=    0.0000
 XYZ=    7.6141    6.0693   17.2186 Q=    0.4170 A=    0.0000 R=    0.0000 C=    0.0000
 XYZ=    8.4329    4.8457   17.5708 Q=    0.4170 A=    0.0000 R=    0.0000 C=    0.0000
 XYZ=   24.4016   22.7213   22.5203 Q=   -0.8340 A=    0.0000 R=    0.0000 C=    0.0000
 XYZ=   24.6357   22.3196   21.6836 Q=    0.4170 A=    0.0000 R=    0.0000 C=    0.0000
 XYZ=   23.4804   22.4938   22.6463 Q=    0.4170 A=    0.0000 R=    0.0000 C=    0.0000
 XYZ=    9.4066   17.0298    7.7382 Q=   -0.8340 A=    0.0000 R=    0.0000 C=    0.0000
 XYZ=    9.8204   16.1806    7.8929 Q=    0.4170 A=    0.0000 R=    0.0000 C=    0.0000
 XYZ=    8.5988   17.0001    8.2508 Q=    0.4170 A=    0.0000 R=    0.0000 C=    0.0000
 XYZ=   19.5910   13.5220   24.6917 Q=   -0.8340 A=    0.0000 R=    0.0000 C=    0.0000
 XYZ=   19.7309   13.2611   23.7814 Q=    0.4170 A=    0.0000 R=    0.0000 C=    0.0000
 XYZ=   18.7844   13.0750   24.9482 Q=    0.4170 A=    0.0000 R=    0.0000 C=    0.0000
 XYZ=   14.2651    9.3861   22.6450 Q=   -0.8340 A=    0.0000 R=    0.0000 C=    0.0000
 XYZ=   14.3591    8.4356   22.5813 Q=    0.4170 A=    0.0000 R=    0.0000 C=    0.0000
 XYZ=   13.6750    9.6175   21.9278 Q=    0.4170 A=    0.0000 R=    0.0000 C=    0.0000
 XYZ=   11.3641   22.1391   21.1288 Q=   -0.8340 A=    0.0000 R=    0.0000 C=    0.0000
 XYZ=   10.7691   22.3078   20.3983 Q=    0.4170 A=    0.0000 R=    0.0000 C=    0.0000
 XYZ=   12.0371   22.8154   21.0513 Q=    0.4170 A=    0.0000 R=    0.0000 C=    0.0000
 XYZ=   12.4804   19.5231   13.5726 Q=   -0.8340 A=    0.0000 R=    0.0000 C=    0.0000
 XYZ=   13.2567   19.5864   14.1289 Q=    0.4170 A=    0.0000 R=    0.0000 C=    0.0000
 XYZ=   12.8180   19.2490   12.7199 Q=    0.4170 A=    0.0000 R=    0.0000 C=    0.0000
 XYZ=   21.1918   23.5352   28.3608 Q=   -0.8340 A=    0.0000 R=    0.0000 C=    0.0000
 XYZ=   20.6010   22.9325   28.8124 Q=    0.4170 A=    0.0000 R=    0.0000 C=    0.0000
 XYZ=   21.9888   23.0255   28.2147 Q=    0.4170 A=    0.0000 R=    0.0000 C=    0.0000
 XYZ=   16.5955   21.0702   13.5171 Q=   -0.8340 A=    0.0000 R=    0.0000 C=    0.0000
 XYZ=   16.3207   21.9759   13.6601 Q=    0.4170 A=    0.0000 R=    0.0000 C=    0.0000
 XYZ=   17.4495   21.0082   13.9449 Q=    0.4170 A=    0.0000 R=    0.0000 C=    0.0000
 XYZ=   26.1928   16.7854   27.7251 Q=   -0.8340 A=    0.0000 R=    0.0000 C=    0.0000
 XYZ=   26.7060   16.6011   26.9384 Q=    0.4170 A=    0.0000 R=    0.0000 C=    0.0000
 XYZ=   26.3809   16.0527   28.3115 Q=    0.4170 A=    0.0000 R=    0.0000 C=    0.0000
 XYZ=   22.2893   15.9838    4.5450 Q=   -0.8340 A=    0.0000 R=    0.0000 C=    0.0000
 XYZ=   23.0825   16.2740    4.0946 Q=    0.4170 A=    0.0000 R=    0.0000 C=    0.0000
 XYZ=   21.5918   16.5252    4.1754 Q=    0.4170 A=    0.0000 R=    0.0000 C=    0.0000
 XYZ=    5.3454   13.9979   20.8040 Q=   -0.8340 A=    0.0000 R=    0.0000 C=    0.0000
 XYZ=    5.2984   13.5643   21.6561 Q=    0.4170 A=    0.0000 R=    0.0000 C=    0.0000
 XYZ=    5.1459   13.3072   20.1720 Q=    0.4170 A=    0.0000 R=    0.0000 C=    0.0000
 XYZ=   26.2038   10.8985   11.1005 Q=   -0.8340 A=    0.0000 R=    0.0000 C=    0.0000
 XYZ=   26.3303   10.4641   11.9440 Q=    0.4170 A=    0.0000 R=    0.0000 C=    0.0000
 XYZ=   25.6987   11.6845   11.3087 Q=    0.4170 A=    0.0000 R=    0.0000 C=    0.0000
 XYZ=   13.3493   15.8842   23.3380 Q=   -0.8340 A=    0.0000 R=    0.0000 C=    0.0000
 XYZ=   12.8695   15.5781   22.5684 Q=    0.4170 A=    0.0000 R=    0.0000 C=    0.0000
 XYZ=   14.0241   16.4642   22.9851 Q=    0.4170 A=    0.0000 R=    0.0000 C=    0.0000
 XYZ=   24.6809   28.9455   18.3518 Q=   -0.8340 A=    0.0000 R=    0.0000 C=    0.0000
 XYZ=   25.2194   28.5899   17.6448 Q=    0.4170 A=    0.0000 R=    0.0000 C=    0.0000
 XYZ=   25.2872   29.0522   19.0848 Q=    0.4170 A=    0.0000 R=    0.0000 C=    0.0000
 XYZ=   11.4963   29.7752   21.0466 Q=   -0.8340 A=    0.0000 R=    0.0000 C=    0.0000
 XYZ=   12.2202   30.4013   21.0651 Q=    0.4170 A=    0.0000 R=    0.0000 C=    0.0000
 XYZ=   11.5532   29.3682   20.1821 Q=    0.4170 A=    0.0000 R=    0.0000 C=    0.0000
 XYZ=   13.8392    4.3975   13.4206 Q=   -0.8340 A=    0.0000 R=    0.0000 C=    0.0000
 XYZ=   13.2156    4.3339   12.6972 Q=    0.4170 A=    0.0000 R=    0.0000 C=    0.0000
 XYZ=   14.5461    4.9460   13.0806 Q=    0.4170 A=    0.0000 R=    0.0000 C=    0.0000
 XYZ=   12.7524   13.9222   12.7642 Q=   -0.8340 A=    0.0000 R=    0.0000 C=    0.0000
 XYZ=   11.9879   13.3663   12.9148 Q=    0.4170 A=    0.0000 R=    0.0000 C=    0.0000
 XYZ=   13.4828   13.4338   13.1440 Q=    0.4170 A=    0.0000 R=    0.0000 C=    0.0000
 XYZ=   24.3936   16.7034   14.7754 Q=   -0.8340 A=    0.0000 R=    0.0000 C=    0.0000
 XYZ=   24.4230   16.0709   14.0575 Q=    0.4170 A=    0.0000 R=    0.0000 C=    0.0000
 XYZ=   25.1680   16.5051   15.3019 Q=    0.4170 A=    0.0000 R=    0.0000 C=    0.0000
 XYZ=   20.4303   22.2296    7.7248 Q=   -0.8340 A=    0.0000 R=    0.0000 C=    0.0000
 XYZ=   19.5249   22.2735    7.4172 Q=    0.4170 A=    0.0000 R=    0.0000 C=    0.0000
 XYZ=   20.9105   21.8279    7.0007 Q=    0.4170 A=    0.0000 R=    0.0000 C=    0.0000
 XYZ=   25.7963   24.4368    8.3039 Q=   -0.8340 A=    0.0000 R=    0.0000 C=    0.0000
 XYZ=   24.9473   24.1206    7.9950 Q=    0.4170 A=    0.0000 R=    0.0000 C=    0.0000
 XYZ=   26.0709   25.0721    7.6427 Q=    0.4170 A=    0.0000 R=    0.0000 C=    0.0000
 XYZ=   21.1029   24.9510   25.3817 Q=   -0.8340 A=    0.0000 R=    0.0000 C=    0.0000
 XYZ=   20.6090   24.5500   24.6666 Q=    0.4170 A=    0.0000 R=    0.0000 C=    0.0000
 XYZ=   20.9943   25.8929   25.2497 Q=    0.4170 A=    0.0000 R=    0.0000 C=    0.0000
 XYZ=   14.8275    4.5730   20.9576 Q=   -0.8340 A=    0.0000 R=    0.0000 C=    0.0000
 XYZ=   14.8923    5.5001   21.1866 Q=    0.4170 A=    0.0000 R=    0.0000 C=    0.0000
 XYZ=   15.6048    4.1742   21.3487 Q=    0.4170 A=    0.0000 R=    0.0000 C=    0.0000
 XYZ=   10.6863   19.0446   15.8292 Q=   -0.8340 A=    0.0000 R=    0.0000 C=    0.0000
 XYZ=   11.2330   18.3719   16.2354 Q=    0.4170 A=    0.0000 R=    0.0000 C=    0.0000
 XYZ=   10.9057   19.0023   14.8985 Q=    0.4170 A=    0.0000 R=    0.0000 C=    0.0000
 XYZ=   21.3632   19.2553   20.0306 Q=   -0.8340 A=    0.0000 R=    0.0000 C=    0.0000
 XYZ=   20.6453   18.6810   19.7643 Q=    0.4170 A=    0.0000 R=    0.0000 C=    0.0000
 XYZ=   21.6118   18.9414   20.9001 Q=    0.4170 A=    0.0000 R=    0.0000 C=    0.0000
 XYZ=    9.3729   24.2011   14.8177 Q=   -0.8340 A=    0.0000 R=    0.0000 C=    0.0000
 XYZ=    9.8133   23.4782   15.2646 Q=    0.4170 A=    0.0000 R=    0.0000 C=    0.0000
 XYZ=    9.2828   24.8784   15.4881 Q=    0.4170 A=    0.0000 R=    0.0000 C=    0.0000
 XYZ=   10.0082   21.9397    7.8107 Q=   -0.8340 A=    0.0000 R=    0.0000 C=    0.0000
 XYZ=   10.3211   21.9226    6.9062 Q=    0.4170 A=    0.0000 R=    0.0000 C=    0.0000
 XYZ=   10.0589   21.0285    8.0995 Q=    0.4170 A=    0.0000 R=    0.0000 C=    0.0000
 XYZ=   11.5780   14.6843   31.0893 Q=   -0.8340 A=    0.0000 R=    0.0000 C=    0.0000
 XYZ=   11.9141   14.5529   30.2028 Q=    0.4170 A=    0.0000 R=    0.0000 C=    0.0000
 XYZ=   12.1785   14.1920   31.6490 Q=    0.4170 A=    0.0000 R=    0.0000 C=    0.0000
 XYZ=   25.0839   19.1200   25.8482 Q=   -0.8340 A=    0.0000 R=    0.0000 C=    0.0000
 XYZ=   25.2627   18.5744   26.6141 Q=    0.4170 A=    0.0000 R=    0.0000 C=    0.0000
 XYZ=   24.8387   19.9709   26.2116 Q=    0.4170 A=    0.0000 R=    0.0000 C=    0.0000
 XYZ=   22.4879   22.2504   26.1885 Q=   -0.8340 A=    0.0000 R=    0.0000 C=    0.0000
 XYZ=   22.1961   23.1250   25.9312 Q=    0.4170 A=    0.0000 R=    0.0000 C=    0.0000
 XYZ=   21.8932   21.6551   25.7321 Q=    0.4170 A=    0.0000 R=    0.0000 C=    0.0000
 XYZ=    4.7139   12.7795   23.2429 Q=   -0.8340 A=    0.0000 R=    0.0000 C=    0.0000
 XYZ=    5.1457   12.4568   24.0338 Q=    0.4170 A=    0.0000 R=    0.0000 C=    0.0000
 XYZ=    4.1491   12.0579   22.9664 Q=    0.4170 A=    0.0000 R=    0.0000 C=    0.0000
 XYZ=   15.2199   14.8945   31.3582 Q=   -0.8340 A=    0.0000 R=    0.0000 C=    0.0000
 XYZ=   15.8585   15.5153   31.0073 Q=    0.4170 A=    0.0000 R=    0.0000 C=    0.0000
 XYZ=   14.4613   14.9783   30.7805 Q=    0.4170 A=    0.0000 R=    0.0000 C=    0.0000
 XYZ=    8.1864    9.9573   22.0793 Q=   -0.8340 A=    0.0000 R=    0.0000 C=    0.0000
 XYZ=    8.1604    9.9029   23.0346 Q=    0.4170 A=    0.0000 R=    0.0000 C=    0.0000
 XYZ=    8.1341   10.8943   21.8908 Q=    0.4170 A=    0.0000 R=    0.0000 C=    0.0000
 XYZ=    7.2577   18.7637   14.6887 Q=   -0.8340 A=    0.0000 R=    0.0000 C=    0.0000
 XYZ=    7.5714   19.5902   15.0559 Q=    0.4170 A=    0.0000 R=    0.0000 C=    0.0000
 XYZ=    7.4481   18.1133   15.3647 Q=    0.4170 A=    0.0000 R=    0.0000 C=    0.0000
 XYZ=   11.1165    8.4381   27.1345 Q=   -0.8340 A=    0.0000 R=    0.0000 C=    0.0000
 XYZ=   11.9399    8.8316   26.8457 Q=    0.4170 A=    0.0000 R=    0.0000 C=    0.0000
 XYZ=   11.3826    7.6986   27.6809 Q=    0.4170 A=    0.0000 R=    0.0000 C=    0.0000
 XYZ=   24.8613   12.8570   27.9122 Q=   -0.8340 A=    0.0000 R=    0.0000 C=    0.0000
 XYZ=   24.5947   13.2030   28.7639 Q=    0.4170 A=    0.0000 R=    0.0000 C=    0.0000
 XYZ=   24.3123   12.0832   27.7850 Q=    0.4170 A=    0.0000 R=    0.0000 C=    0.0000
 XYZ=   15.0803   18.1453   29.5456 Q=   -0.8340 A=    0.0000 R=    0.0000 C=    0.0000
 XYZ=   15.1480   18.7235   28.7858 Q=    0.4170 A=    0.0000 R=    0.0000 C=    0.0000
 XYZ=   14.1808   17.8190   29.5195 Q=    0.4170 A=    0.0000 R=    0.0000 C=    0.0000
 XYZ=   21.8289   21.9057   22.9879 Q=   -0.8340 A=    0.0000 R=    0.0000 C=    0.0000
 XYZ=   21.0658   22.0577   22.4303 Q=    0.4170 A=    0.0000 R=    0.0000 C=    0.0000
 XYZ=   21.4628   21.7505   23.8586 Q=    0.4170 A=    0.0000 R=    0.0000 C=    0.0000
 XYZ=   10.3860    5.3059   15.2442 Q=   -0.8340 A=    0.0000 R=    0.0000 C=    0.0000
 XYZ=   10.2517    5.9036   14.5088 Q=    0.4170 A=    0.0000 R=    0.0000 C=    0.0000
 XYZ=    9.5231    5.2287   15.6514 Q=    0.4170 A=    0.0000 R=    0.0000 C=    0.0000
 XYZ=   15.5112   16.8234    6.2698 Q=   -0.8340 A=    0.0000 R=    0.0000 C=    0.0000
 XYZ=   16.2294   16.2940    5.9231 Q=    0.4170 A=    0.0000 R=    0.0000 C=    0.0000
 XYZ=   15.1086   17.2178    5.4961 Q=    0.4170 A=    0.0000 R=    0.0000 C=    0.0000
 XYZ=   19.4794   12.5988    6.5952 Q=   -0.8340 A=    0.0000 R=    0.0000 C=    0.0000
 XYZ=   19.2367   11.6753    6.6634 Q=    0.4170 A=    0.0000 R=    0.0000 C=    0.0000
 XYZ=   20.1437   12.6221    5.9064 Q=    0.4170 A=    0.0000 R=    0.0000 C=    0.0000
 XYZ=   16.5605   27.2245   22.6070 Q=   -0.8340 A=    0.0000 R=    0.0000 C=    0.0000
 XYZ=   17.0477   27.3358   23.4234 Q=    0.4170 A=    0.0000 R=    0.0000 C=    0.0000
 XYZ=   16.4230   28.1158   22.2862 Q=    0.4170 A=    0.0000 R=    0.0000 C=    0.0000
 XYZ=   12.9140   24.3057   21.1144 Q=   -0.8340 A=    0.0000 R=    0.0000 C=    0.0000
 XYZ=   13.2589   24.8819   21.7965 Q=    0.4170 A=    0.0000 R=    0.0000 C=    0.0000
 XYZ=   13.6871   23.8718   20.7533 Q=    0.4170 A=    0.0000 R=    0.0000 C=    0.0000
 XYZ=   10.3169   24.2167   17.6088 Q=   -0.8340 A=    0.0000 R=    0.0000 C=    0.0000
 XYZ=   11.2316   24.3376   17.8635 Q=    0.4170 A=    0.0000 R=    0.0000 C=    0.0000
 XYZ=   10.0603   23.3915   18.0203 Q=    0.4170 A=    0.0000 R=    0.0000 C=    0.0000
 XYZ=    6.6636   27.3938   11.9947 Q=   -0.8340 A=    0.0000 R=    0.0000 C=    0.0000
 XYZ=    7.5178   27.8222   12.0511 Q=    0.4170 A=    0.0000 R=    0.0000 C=    0.0000
 XYZ=    6.7873   26.5529   12.4350 Q=    0.4170 A=    0.0000 R=    0.0000 C=    0.0000
 XYZ=   20.5040   30.4587   20.7684 Q=   -0.8340 A=    0.0000 R=    0.0000 C=    0.0000
 XYZ=   19.9276   30.0406   21.4081 Q=    0.4170 A=    0.0000 R=    0.0000 C=    0.0000
 XYZ=   20.9193   29.7299   20.3072 Q=    0.4170 A=    0.0000 R=    0.0000 C=    0.0000
 XYZ=   20.2036   16.9397    2.9778 Q=   -0.8340 A=    0.0000 R=    0.0000 C=    0.0000
 XYZ=   20.1141   17.1574    2.0500 Q=    0.4170 A=    0.0000 R=    0.0000 C=    0.0000
 XYZ=   19.6664   17.5903    3.4299 Q=    0.4170 A=    0.0000 R=    0.0000 C=    0.0000
 XYZ=   22.7644   11.2445   27.3113 Q=   -0.8340 A=    0.0000 R=    0.0000 C=    0.0000
 XYZ=   23.0639   10.4786   27.8012 Q=    0.4170 A=    0.0000 R=    0.0000 C=    0.0000
 XYZ=   21.8134   11.1447   27.2677 Q=    0.4170 A=    0.0000 R=    0.0000 C=    0.0000
 XYZ=   22.4634   12.6626   15.8844 Q=   -0.8340 A=    0.0000 R=    0.0000 C=    0.0000
 XYZ=   22.2508   13.0387   15.0302 Q=    0.4170 A=    0.0000 R=    0.0000 C=    0.0000
 XYZ=   22.6020   11.7319   15.7091 Q=    0.4170 A=    0.0000 R=    0.0000 C=    0.0000
 XYZ=   19.7532   17.5017   30.6974 Q=   -0.8340 A=    0.0000 R=    0.0000 C=    0.0000
 XYZ=   19.9791   17.0404   29.8897 Q=    0.4170 A=    0.0000 R=    0.0000 C=    0.0000
 XYZ=   20.5440   17.9914   30.9233 Q=    0.4170 A=    0.0000 R=    0.0000 C=    0.0000
 XYZ=   12.7641    8.7161    7.6159 Q=   -0.8340 A=    0.0000 R=    0.0000 C=    0.0000
 XYZ=   12.9842    9.1723    6.8036 Q=    0.4170 A=    0.0000 R=    0.0000 C=    0.0000
 XYZ=   11.8866    8.3652    7.4639 Q=    0.4170 A=    0.0000 R=    0.0000 C=    0.0000
 XYZ=   12.3122   27.5083   15.5288 Q=   -0.8340 A=    0.0000 R=    0.0000 C=    0.0000
 XYZ=   11.6184   27.6983   14.8973 Q=    0.4170 A=    0.0000 R=    0.0000 C=    0.0000
 XYZ=   12.0113   26.7236   15.9870 Q=    0.4170 A=    0.0000 R=    0.0000 C=    0.0000
 XYZ=   15.7556   14.4460   26.1233 Q=   -0.8340 A=    0.0000 R=    0.0000 C=    0.0000
 XYZ=   16.5449   14.5363   26.6573 Q=    0.4170 A=    0.0000 R=    0.0000 C=    0.0000
 XYZ=   15.1953   15.1717   26.3986 Q=    0.4170 A=    0.0000 R=    0.0000 C=    0.0000
 XYZ=   11.3304   19.2768   21.6951 Q=   -0.8340 A=    0.0000 R=    0.0000 C=    0.0000
 XYZ=   10.4452   19.2081   22.0526 Q=    0.4170 A=    0.0000 R=    0.0000 C=    0.0000
 XYZ=   11.3715   20.1581   21.3237 Q=    0.4170 A=    0.0000 R=    0.0000 C=    0.0000
 XYZ=   14.7664   21.6525   11.1877 Q=   -0.8340 A=    0.0000 R=    0.0000 C=    0.0000
 XYZ=   14.1133   21.5349   11.8776 Q=    0.4170 A=    0.0000 R=    0.0000 C=    0.0000
 XYZ=   14.5935   22.5274   10.8401 Q=    0.4170 A=    0.0000 R=    0.0000 C=    0.0000
 XYZ=   25.1353   20.7084   20.7943 Q=   -0.8340 A=    0.0000 R=    0.0000 C=    0.0000
 XYZ=   26.0670   20.9222   20.8441 Q=    0.4170 A=    0.0000 R=    0.0000 C=    0.0000
 XYZ=   24.9405   20.7011   19.8572 Q=    0.4170 A=    0.0000 R=    0.0000 C=    0.0000
 XYZ=   12.0303   27.5091   11.7419 Q=   -0.8340 A=    0.0000 R=    0.0000 C=    0.0000
 XYZ=   11.7670   26.6554   12.0856 Q=    0.4170 A=    0.0000 R=    0.0000 C=    0.0000
 XYZ=   11.4349   28.1305   12.1610 Q=    0.4170 A=    0.0000 R=    0.0000 C=    0.0000
 XYZ=   27.5134   16.5523   25.6744 Q=   -0.8340 A=    0.0000 R=    0.0000 C=    0.0000
 XYZ=   28.1973   15.9627   25.3566 Q=    0.4170 A=    0.0000 R=    0.0000 C=    0.0000
 XYZ=   27.6195   17.3469   25.1513 Q=    0.4170 A=    0.0000 R=    0.0000 C=    0.0000
 XYZ=   15.8184    6.9694   26.3445 Q=   -0.8340 A=    0.0000 R=    0.0000 C=    0.0000
 XYZ=   16.5134    7.3098   26.9079 Q=    0.4170 A=    0.0000 R=    0.0000 C=    0.0000
 XYZ=   16.2009    6.1942   25.9334 Q=    0.4170 A=    0.0000 R=    0.0000 C=    0.0000
 XYZ=    4.5629   16.3754   17.0463 Q=   -0.8340 A=    0.0000 R=    0.0000 C=    0.0000
 XYZ=    4.2468   15.5041   16.8072 Q=    0.4170 A=    0.0000 R=    0.0000 C=    0.0000
 XYZ=    4.1997   16.9546   16.3764 Q=    0.4170 A=    0.0000 R=    0.0000 C=    0.0000
 XYZ=   10.9533    8.1250   24.3666 Q=   -0.8340 A=    0.0000 R=    0.0000 C=    0.0000
 XYZ=   10.1914    8.6996   24.2918 Q=    0.4170 A=    0.0000 R=    0.0000 C=    0.0000
 XYZ=   10.9610    7.8550   25.2850 Q=    0.4170 A=    0.0000 R=    0.0000 C=    0.0000
 XYZ=   27.8972   13.9008   18.0569 Q=   -0.8340 A=    0.0000 R=    0.0000 C=    0.0000
 XYZ=   28.8193   14.1576   18.0608 Q=    0.4170 A=    0.0000 R=    0.0000 C=    0.0000
 XYZ=   27.6432   13.9041   18.9798 Q=    0.4170 A=    0.0000 R=    0.0000 C=    0.0000
 XYZ=    9.0910   17.9232   23.1118 Q=   -0.8340 A=    0.0000 R=    0.0000 C=    0.0000
 XYZ=    8.7011   17.2244   22.5865 Q=    0.4170 A=    0.0000 R=    0.0000 C=    0.0000
 XYZ=    8.3525   18.4823   23.3534 Q=    0.4170 A=    0.0000 R=    0.0000 C=    0.0000
 XYZ=   17.3995   22.3541   20.3490 Q=   -0.8340 A=    0.0000 R=    0.0000 C=    0.0000
 XYZ=   17.1479   21.6343   20.9276 Q=    0.4170 A=    0.0000 R=    0.0000 C=    0.0000
 XYZ=   18.0251   21.9640   19.7386 Q=    0.4170 A=    0.0000 R=    0.0000 C=    0.0000
 XYZ=   13.7422   14.1946   28.7772 Q=   -0.8340 A=    0.0000 R=    0.0000 C=    0.0000
 XYZ=   13.4962   13.4200   29.2828 Q=    0.4170 A=    0.0000 R=    0.0000 C=    0.0000
 XYZ=   14.3320   13.8623   28.1005 Q=    0.4170 A=    0.0000 R=    0.0000 C=    0.0000
 XYZ=    8.7882   19.8439   19.0039 Q=   -0.8340 A=    0.0000 R=    0.0000 C=    0.0000
 XYZ=    8.2273   19.1585   19.3670 Q=    0.4170 A=    0.0000 R=    0.0000 C=    0.0000
 XYZ=    9.0155   19.5295   18.1289 Q=    0.4170 A=    0.0000 R=    0.0000 C=    0.0000
 XYZ=   21.2851   26.7300   21.6595 Q=   -0.8340 A=    0.0000 R=    0.0000 C=    0.0000
 XYZ=   21.6418   26.4043   20.8332 Q=    0.4170 A=    0.0000 R=    0.0000 C=    0.0000
 XYZ=   20.4814   26.2266   21.7890 Q=    0.4170 A=    0.0000 R=    0.0000 C=    0.0000
 XYZ=   20.9999   27.6037   16.6327 Q=   -0.8340 A=    0.0000 R=    0.0000 C=    0.0000
 XYZ=   21.3035   27.9506   17.4716 Q=    0.4170 A=    0.0000 R=    0.0000 C=    0.0000
 XYZ=   20.1049   27.9321   16.5469 Q=    0.4170 A=    0.0000 R=    0.0000 C=    0.0000
 XYZ=   16.8228   24.7182    7.6734 Q=   -0.8340 A=    0.0000 R=    0.0000 C=    0.0000
 XYZ=   15.9538   25.1113    7.5927 Q=    0.4170 A=    0.0000 R=    0.0000 C=    0.0000
 XYZ=   17.0532   24.4599    6.7809 Q=    0.4170 A=    0.0000 R=    0.0000 C=    0.0000
 XYZ=   23.2889   11.9460    5.3508 Q=   -0.8340 A=    0.0000 R=    0.0000 C=    0.0000
 XYZ=   23.2037   12.8399    5.6823 Q=    0.4170 A=    0.0000 R=    0.0000 C=    0.0000
 XYZ=   23.7253   12.0444    4.5046 Q=    0.4170 A=    0.0000 R=    0.0000 C=    0.0000
 XYZ=   19.6737   31.5793   18.1062 Q=   -0.8340 A=    0.0000 R=    0.0000 C=    0.0000
 XYZ=   19.6916   31.3159   19.0262 Q=    0.4170 A=    0.0000 R=    0.0000 C=    0.0000
 XYZ=   19.0229   31.0037   17.7044 Q=    0.4170 A=    0.0000 R=    0.0000 C=    0.0000
 XYZ=   20.3987    8.8110   15.3238 Q=   -0.8340 A=    0.0000 R=    0.0000 C=    0.0000
 XYZ=   19.4428    8.7630   15.3357 Q=    0.4170 A=    0.0000 R=    0.0000 C=    0.0000
 XYZ=   20.6546    8.3072   14.5512 Q=    0.4170 A=    0.0000 R=    0.0000 C=    0.0000
 XYZ=   18.2152   28.3271   15.8943 Q=   -0.8340 A=    0.0000 R=    0.0000 C=    0.0000
 XYZ=   17.5675   28.2291   16.5922 Q=    0.4170 A=    0.0000 R=    0.0000 C=    0.0000
 XYZ=   17.9362   29.1078   15.4158 Q=    0.4170 A=    0.0000 R=    0.0000 C=    0.0000
 XYZ=   24.9081    9.1788   21.9433 Q=   -0.8340 A=    0.0000 R=    0.0000 C=    0.0000
 XYZ=   24.8105    8.3021   21.5715 Q=    0.4170 A=    0.0000 R=    0.0000 C=    0.0000
 XYZ=   24.4095    9.7458   21.3549 Q=    0.4170 A=    0.0000 R=    0.0000 C=    0.0000
 XYZ=   17.4816   15.0061    5.2004 Q=   -0.8340 A=    0.0000 R=    0.0000 C=    0.0000
 XYZ=   16.9441   15.0975    4.4137 Q=    0.4170 A=    0.0000 R=    0.0000 C=    0.0000
 XYZ=   18.3827   15.0748    4.8848 Q=    0.4170 A=    0.0000 R=    0.0000 C=    0.0000
 XYZ=   28.5489   26.2613   15.6868 Q=   -0.8340 A=    0.0000 R=    0.0000 C=    0.0000
 XYZ=   29.3761   25.7964   15.8124 Q=    0.4170 A=    0.0000 R=    0.0000 C=    0.0000
 XYZ=   28.1183   25.7956   14.9700 Q=    0.4170 A=    0.0000 R=    0.0000 C=    0.0000
 XYZ=   28.1073    9.3187   18.5906 Q=   -0.8340 A=    0.0000 R=    0.0000 C=    0.0000
 XYZ=   28.0884    9.4328   19.5407 Q=    0.4170 A=    0.0000 R=    0.0000 C=    0.0000
 XYZ=   28.8412    8.7242   18.4347 Q=    0.4170 A=    0.0000 R=    0.0000 C=    0.0000
 XYZ=   16.4197   30.1805   11.8190 Q=   -0.8340 A=    0.0000 R=    0.0000 C=    0.0000
 XYZ=   16.6126   31.0351   12.2047 Q=    0.4170 A=    0.0000 R=    0.0000 C=    0.0000
 XYZ=   15.5537   29.9541   12.1581 Q=    0.4170 A=    0.0000 R=    0.0000 C=    0.0000
 XYZ=   18.1829   25.6680   14.6822 Q=   -0.8340 A=    0.0000 R=    0.0000 C=    0.0000
 XYZ=   18.1605   26.5984   14.9061 Q=    0.4170 A=    0.0000 R=    0.0000 C=    0.0000
 XYZ=   17.2905   25.4675   14.4000 Q=    0.4170 A=    0.0000 R=    0.0000 C=    0.0000
 XYZ=   23.7153   19.2221   22.6484 Q=   -0.8340 A=    0.0000 R=    0.0000 C=    0.0000
 XYZ=   24.2934   19.6508   22.0174 Q=    0.4170 A=    0.0000 R=    0.0000 C=    0.0000
 XYZ=   23.4918   19.9102   23.2752 Q=    0.4170 A=    0.0000 R=    0.0000 C=    0.0000
 XYZ=   31.5342   16.6159   16.4825 Q=   -0.8340 A=    0.0000 R=    0.0000 C=    0.0000
 XYZ=   32.0967   17.3699   16.3058 Q=    0.4170 A=    0.0000 R=    0.0000 C=    0.0000
 XYZ=   30.8693   16.6460   15.7945 Q=    0.4170 A=    0.0000 R=    0.0000 C=    0.0000
 XYZ=   29.7616   18.8918   11.0867 Q=   -0.8340 A=    0.0000 R=    0.0000 C=    0.0000
 XYZ=   29.4550   19.7946   11.0008 Q=    0.4170 A=    0.0000 R=    0.0000 C=    0.0000
 XYZ=   30.5833   18.9626   11.5725 Q=    0.4170 A=    0.0000 R=    0.0000 C=    0.0000
 XYZ=   21.7959   21.2490   13.7407 Q=   -0.8340 A=    0.0000 R=    0.0000 C=    0.0000
 XYZ=   21.7172   21.6761   12.8876 Q=    0.4170 A=    0.0000 R=    0.0000 C=    0.0000
 XYZ=   20.8923   21.0958   14.0166 Q=    0.4170 A=    0.0000 R=    0.0000 C=    0.0000
 XYZ=   25.1450   14.4158   25.1838 Q=   -0.8340 A=    0.0000 R=    0.0000 C=    0.0000
 XYZ=   25.8421   14.5012   25.8342 Q=    0.4170 A=    0.0000 R=    0.0000 C=    0.0000
 XYZ=   25.0224   13.4715   25.0861 Q=    0.4170 A=    0.0000 R=    0.0000 C=    0.0000
 XYZ=   21.2421   18.1651   25.8433 Q=   -0.8340 A=    0.0000 R=    0.0000 C=    0.0000
 XYZ=   20.6759   17.4291   25.6110 Q=    0.4170 A=    0.0000 R=    0.0000 C=    0.0000
 XYZ=   22.1309   17.8192   25.7618 Q=    0.4170 A=    0.0000 R=    0.0000 C=    0.0000
 XYZ=   12.6161    6.5611   22.6825 Q=   -0.8340 A=    0.0000 R=    0.0000 C=    0.0000
 XYZ=   12.0881    6.9490   23.3804 Q=    0.4170 A=    0.0000 R=    0.0000 C=    0.0000
 XYZ=   11.9954    6.4044   21.9709 Q=    0.4170 A=    0.0000 R=    0.0000 C=    0.0000
 XYZ=   13.1413   10.5540   20.3223 Q=   -0.8340 A=    0.0000 R=    0.0000 C=    0.0000
 XYZ=   12.6298    9.8349   19.9514 Q=    0.4170 A=    0.0000 R=    0.0000 C=    0.0000
 XYZ=   12.8111   11.3362   19.8804 Q=    0.4170 A=    0.0000 R=    0.0000 C=    0.0000
 XYZ=   21.4802   13.9897   13.3800 Q=   -0.8340 A=    0.0000 R=    0.0000 C=    0.0000
 XYZ=   21.3117   14.4208   12.5421 Q=    0.4170 A=    0.0000 R=    0.0000 C=    0.0000
 XYZ=   21.4358   13.0543   13.1819 Q=    0.4170 A=    0.0000 R=    0.0000 C=    0.0000
 XYZ=   12.2460   22.0521   12.3903 Q=   -0.8340 A=    0.0000 R=    0.0000 C=    0.0000
 XYZ=   11.7211   21.6342   11.7076 Q=    0.4170 A=    0.0000 R=    0.0000 C=    0.0000
 XYZ=   11.7396   21.9265   13.1929 Q=    0.4170 A=    0.0000 R=    0.0000 C=    0.0000
 XYZ=   28.3831   26.3133   18.7498 Q=   -0.8340 A=    0.0000 R=    0.0000 C=    0.0000
 XYZ=   29.1340   26.7927   18.3997 Q=    0.4170 A=    0.0000 R=    0.0000 C=    0.0000
 XYZ=   27.8046   26.1905   17.9971 Q=    0.4170 A=    0.0000 R=    0.0000 C=    0.0000
 XYZ=   16.6094   11.4061   10.1790 Q=   -0.8340 A=    0.0000 R=    0.0000 C=    0.0000
 XYZ=   17.2125   11.9449    9.6670 Q=    0.4170 A=    0.0000 R=    0.0000 C=    0.0000
 XYZ=   15.7596   11.8349   10.0779 Q=    0.4170 A=    0.0000 R=    0.0000 C=    0.0000
 XYZ=    8.1358   16.0552   26.7185 Q=   -0.8340 A=    0.0000 R=    0.0000 C=    0.0000
 XYZ=    7.8607   16.1063   27.6339 Q=    0.4170 A=    0.0000 R=    0.0000 C=    0.0000
 XYZ=    8.6937   15.2785   26.6785 Q=    0.4170 A=    0.0000 R=    0.0000 C=    0.0000
 XYZ=   24.8043    6.5189   21.0245 Q=   -0.8340 A=    0.0000 R=    0.0000 C=    0.0000
 XYZ=   25.6446    6.0638   21.0785 Q=    0.4170 A=    0.0000 R=    0.0000 C=    0.0000
 XYZ=   24.1635    5.8232   20.8776 Q=    0.4170 A=    0.0000 R=    0.0000 C=    0.0000
 XYZ=    9.1405   10.4623   27.2059 Q=   -0.8340 A=    0.0000 R=    0.0000 C=    0.0000
 XYZ=    9.8984    9.8932   27.3397 Q=    0.4170 A=    0.0000 R=    0.0000 C=    0.0000
 XYZ=    9.3962   11.2982   27.5960 Q=    0.4170 A=    0.0000 R=    0.0000 C=    0.0000
 XYZ=   22.6575   13.7515   20.1597 Q=   -0.8340 A=    0.0000 R=    0.0000 C=    0.0000
 XYZ=   22.6963   13.7124   21.1154 Q=    0.4170 A=    0.0000 R=    0.0000 C=    0.0000
 XYZ=   22.4794   14.6714   19.9642 Q=    0.4170 A=    0.0000 R=    0.0000 C=    0.0000
 XYZ=   14.6140    5.2522   24.3392 Q=   -0.8340 A=    0.0000 R=    0.0000 C=    0.0000
 XYZ=   13.7873    5.4714   23.9094 Q=    0.4170 A=    0.0000 R=    0.0000 C=    0.0000
 XYZ=   14.4968    5.5381   25.2451 Q=    0.4170 A=    0.0000 R=    0.0000 C=    0.0000
 XYZ=   14.7404   28.0304   25.9522 Q=   -0.8340 A=    0.0000 R=    0.0000 C=    0.0000
 XYZ=   15.4614   28.1201   26.5754 Q=    0.4170 A=    0.0000 R=    0.0000 C=    0.0000
 XYZ=   14.7264   28.8628   25.4799 Q=    0.4170 A=    0.0000 R=    0.0000 C=    0.0000
 XYZ=    7.0068   11.0305    7.3165 Q=   -0.8340 A=    0.0000 R=    0.0000 C=    0.0000
 XYZ=    7.5442   10.8004    6.5586 Q=    0.4170 A=    0.0000 R=    0.0000 C=    0.0000
 XYZ=    7.2227   11.9459    7.4947 Q=    0.4170 A=    0.0000 R=    0.0000 C=    0.0000
 XYZ=   16.1274   24.9861   24.9799 Q=   -0.8340 A=    0.0000 R=    0.0000 C=    0.0000
 XYZ=   16.6072   25.8007   25.1301 Q=    0.4170 A=    0.0000 R=    0.0000 C=    0.0000
 XYZ=   15.5000   25.2009   24.2897 Q=    0.4170 A=    0.0000 R=    0.0000 C=    0.0000
 XYZ=   22.1269   16.5268    8.3471 Q=   -0.8340 A=    0.0000 R=    0.0000 C=    0.0000
 XYZ=   21.5935   17.0256    7.7283 Q=    0.4170 A=    0.0000 R=    0.0000 C=    0.0000
 XYZ=   21.9645   15.6112    8.1203 Q=    0.4170 A=    0.0000 R=    0.0000 C=    0.0000
 XYZ=   18.4246    5.1801   10.7137 Q=   -0.8340 A=    0.0000 R=    0.0000 C=    0.0000
 XYZ=   18.8198    4.8831   11.5334 Q=    0.4170 A=    0.0000 R=    0.0000 C=    0.0000
 XYZ=   17.7218    5.7700   10.9860 Q=    0.4170 A=    0.0000 R=    0.0000 C=    0.0000
 XYZ=   31.1514   15.1451   12.4826 Q=   -0.8340 A=    0.0000 R=    0.0000 C=    0.0000
 XYZ=   30.2299   15.4040   12.4741 Q=    0.4170 A=    0.0000 R=    0.0000 C=    0.0000
 XYZ=   31.3948   15.0936   11.5583 Q=    0.4170 A=    0.0000 R=    0.0000 C=    0.0000
 XYZ=   18.9417    9.4061   24.4621 Q=   -0.8340 A=    0.0000 R=    0.0000 C=    0.0000
 XYZ=   19.2128    9.9139   25.2269 Q=    0.4170 A=    0.0000 R=    0.0000 C=    0.0000
 XYZ=   18.2206    9.9089   24.0834 Q=    0.4170 A=    0.0000 R=    0.0000 C=    0.0000
 XYZ=   20.5756   11.3642    4.3490 Q=   -0.8340 A=    0.0000 R=    0.0000 C=    0.0000
 XYZ=   20.3453   11.5842    3.4463 Q=    0.4170 A=    0.0000 R=    0.0000 C=    0.0000
 XYZ=   21.5283   11.2721    4.3379 Q=    0.4170 A=    0.0000 R=    0.0000 C=    0.0000
 XYZ=   10.2474   22.2570   27.1349 Q=   -0.8340 A=    0.0000 R=    0.0000 C=    0.0000
 XYZ=   10.4554   22.6145   26.2716 Q=    0.4170 A=    0.0000 R=    0.0000 C=    0.0000
 XYZ=    9.4332   21.7712   27.0037 Q=    0.4170 A=    0.0000 R=    0.0000 C=    0.0000
 XYZ=   20.1409   11.1657   19.7561 Q=   -0.8340 A=    0.0000 R=    0.0000 C=    0.0000
 XYZ=   20.0844   11.9701   19.2405 Q=    0.4170 A=    0.0000 R=    0.0000 C=    0.0000
 XYZ=   19.5621   10.5506   19.3055 Q=    0.4170 A=    0.0000 R=    0.0000 C=    0.0000
 XYZ=   14.1776   25.9612   23.0053 Q=   -0.8340 A=    0.0000 R=    0.0000 C=    0.0000
 XYZ=   13.4189   26.4352   23.3458 Q=    0.4170 A=    0.0000 R=    0.0000 C=    0.0000
 XYZ=   14.8671   26.6224   22.9464 Q=    0.4170 A=    0.0000 R=    0.0000 C=    0.0000
 XYZ=   27.4005   22.8502   17.0919 Q=   -0.8340 A=    0.0000 R=    0.0000 C=    0.0000
 XYZ=   27.0528   23.5918   16.5964 Q=    0.4170 A=    0.0000 R=    0.0000 C=    0.0000
 XYZ=   27.9123   22.3537   16.4533 Q=    0.4170 A=    0.0000 R=    0.0000 C=    0.0000
 XYZ=    8.9032   22.4459   23.4210 Q=   -0.8340 A=    0.0000 R=    0.0000 C=    0.0000
 XYZ=    9.4621   21.8865   22.8816 Q=    0.4170 A=    0.0000 R=    0.0000 C=    0.0000
 XYZ=    8.0683   21.9800   23.4651 Q=    0.4170 A=    0.0000 R=    0.0000 C=    0.0000
 XYZ=   27.0602   17.9345    7.8392 Q=   -0.8340 A=    0.0000 R=    0.0000 C=    0.0000
 XYZ=   26.5206   17.8773    7.0507 Q=    0.4170 A=    0.0000 R=    0.0000 C=    0.0000
 XYZ=   26.4377   18.1161    8.5434 Q=    0.4170 A=    0.0000 R=    0.0000 C=    0.0000
 XYZ=    2.1109   17.6488   12.8863 Q=   -0.8340 A=    0.0000 R=    0.0000 C=    0.0000
 XYZ=    1.3478   18.1140   13.2291 Q=    0.4170 A=    0.0000 R=    0.0000 C=    0.0000
 XYZ=    1.7464   17.0038   12.2801 Q=    0.4170 A=    0.0000 R=    0.0000 C=    0.0000
 XYZ=   29.4419   11.8091   12.1314 Q=   -0.8340 A=    0.0000 R=    0.0000 C=    0.0000
 XYZ=   29.5972   11.8461   13.0752 Q=    0.4170 A=    0.0000 R=    0.0000 C=    0.0000
 XYZ=   29.1643   12.6952   11.8990 Q=    0.4170 A=    0.0000 R=    0.0000 C=    0.0000
 XYZ=   20.6720   18.7717    6.1168 Q=   -0.8340 A=    0.0000 R=    0.0000 C=    0.0000
 XYZ=   20.1271   18.8398    6.9009 Q=    0.4170 A=    0.0000 R=    0.0000 C=    0.0000
 XYZ=   20.1699   19.2196    5.4360 Q=    0.4170 A=    0.0000 R=    0.0000 C=    0.0000
 XYZ=    7.1565   24.8721   13.4232 Q=   -0.8340 A=    0.0000 R=    0.0000 C=    0.0000
 XYZ=    7.0276   24.3349   12.6415 Q=    0.4170 A=    0.0000 R=    0.0000 C=    0.0000
 XYZ=    8.0232   24.6239   13.7448 Q=    0.4170 A=    0.0000 R=    0.0000 C=    0.0000
 XYZ=   12.2449   18.8357    5.4184 Q=   -0.8340 A=    0.0000 R=    0.0000 C=    0.0000
 XYZ=   12.6328   19.7107    5.4084 Q=    0.4170 A=    0.0000 R=    0.0000 C=    0.0000
 XYZ=   12.6779   18.3730    4.7009 Q=    0.4170 A=    0.0000 R=    0.0000 C=    0.0000
 XYZ=   28.6501   12.4588    9.3244 Q=   -0.8340 A=    0.0000 R=    0.0000 C=    0.0000
 XYZ=   28.6758   12.1219   10.2200 Q=    0.4170 A=    0.0000 R=    0.0000 C=    0.0000
 XYZ=   27.8556   12.9915    9.2911 Q=    0.4170 A=    0.0000 R=    0.0000 C=    0.0000
 XYZ=   22.7994    9.9053   16.2226 Q=   -0.8340 A=    0.0000 R=    0.0000 C=    0.0000
 XYZ=   23.2966    9.2449   16.7052 Q=    0.4170 A=    0.0000 R=    0.0000 C=    0.0000
 XYZ=   21.9103    9.5532   16.1810 Q=    0.4170 A=    0.0000 R=    0.0000 C=    0.0000
 XYZ=   16.0393   10.4567   18.1145 Q=   -0.8340 A=    0.0000 R=    0.0000 C=    0.0000
 XYZ=   16.7439   10.2131   17.5142 Q=    0.4170 A=    0.0000 R=    0.0000 C=    0.0000
 XYZ=   15.3532   10.8102   17.5484 Q=    0.4170 A=    0.0000 R=    0.0000 C=    0.0000
 XYZ=   29.7513   20.9255   22.7812 Q=   -0.8340 A=    0.0000 R=    0.0000 C=    0.0000
 XYZ=   29.5553   21.3075   23.6367 Q=    0.4170 A=    0.0000 R=    0.0000 C=    0.0000
 XYZ=   29.0189   21.1923   22.2257 Q=    0.4170 A=    0.0000 R=    0.0000 C=    0.0000
 XYZ=   24.1369   19.1393    9.5152 Q=   -0.8340 A=    0.0000 R=    0.0000 C=    0.0000
 XYZ=   24.5289   19.2590   10.3802 Q=    0.4170 A=    0.0000 R=    0.0000 C=    0.0000
 XYZ=   23.5412   18.3978    9.6222 Q=    0.4170 A=    0.0000 R=    0.0000 C=    0.0000
 XYZ=   28.0407    9.6250   15.6389 Q=   -0.8340 A=    0.0000 R=    0.0000 C=    0.0000
 XYZ=   27.1536    9.2725   15.5686 Q=    0.4170 A=    0.0000 R=    0.0000 C=    0.0000
 XYZ=   27.9368   10.5661   15.4981 Q=    0.4170 A=    0.0000 R=    0.0000 C=    0.0000
 XYZ=    6.7668   19.2299   21.3532 Q=   -0.8340 A=    0.0000 R=    0.0000 C=    0.0000
 XYZ=    7.1722   18.3628   21.3575 Q=    0.4170 A=    0.0000 R=    0.0000 C=    0.0000
 XYZ=    6.1468   19.2014   20.6244 Q=    0.4170 A=    0.0000 R=    0.0000 C=    0.0000
 XYZ=    9.9005   28.2196   14.6116 Q=   -0.8340 A=    0.0000 R=    0.0000 C=    0.0000
 XYZ=    9.6076   28.3983   13.7180 Q=    0.4170 A=    0.0000 R=    0.0000 C=    0.0000
 XYZ=    9.2163   28.5925   15.1675 Q=    0.4170 A=    0.0000 R=    0.0000 C=    0.0000
 XYZ=    7.9892   12.5929   21.7189 Q=   -0.8340 A=    0.0000 R=    0.0000 C=    0.0000
 XYZ=    8.6547   12.9547   22.3040 Q=    0.4170 A=    0.0000 R=    0.0000 C=    0.0000
 XYZ=    8.0066   13.1658   20.9523 Q=    0.4170 A=    0.0000 R=    0.0000 C=    0.0000
 XYZ=   25.3680   16.8296   23.1684 Q=   -0.8340 A=    0.0000 R=    0.0000 C=    0.0000
 XYZ=   25.5353   16.2541   23.9148 Q=    0.4170 A=    0.0000 R=    0.0000 C=    0.0000
 XYZ=   24.8335   17.5382   23.5269 Q=    0.4170 A=    0.0000 R=    0.0000 C=    0.0000
 XYZ=   16.2219   26.0340   19.8188 Q=   -0.8340 A=    0.0000 R=    0.0000 C=    0.0000
 XYZ=   16.1878   25.1175   20.0929 Q=    0.4170 A=    0.0000 R=    0.0000 C=    0.0000
 XYZ=   16.4232   26.5169   20.6203 Q=    0.4170 A=    0.0000 R=    0.0000 C=    0.0000
 XYZ=   17.5166   30.7780   14.9567 Q=   -0.8340 A=    0.0000 R=    0.0000 C=    0.0000
 XYZ=   17.6098   31.0436   14.0418 Q=    0.4170 A=    0.0000 R=    0.0000 C=    0.0000
 XYZ=   17.1106   31.5316   15.3852 Q=    0.4170 A=    0.0000 R=    0.0000 C=    0.0000
 XYZ=   28.3040   14.6510   11.5662 Q=   -0.8340 A=    0.0000 R=    0.0000 C=    0.0000
 XYZ=   27.8449   14.4902   12.3906 Q=    0.4170 A=    0.0000 R=    0.0000 C=    0.0000
 XYZ=   27.6345   15.0120   10.9851 Q=    0.4170 A=    0.0000 R=    0.0000 C=    0.0000
 XYZ=   16.9287   10.4940   29.9215 Q=   -0.8340 A=    0.0000 R=    0.0000 C=    0.0000
 XYZ=   16.6814   10.2820   30.8216 Q=    0.4170 A=    0.0000 R=    0.0000 C=    0.0000
 XYZ=   16.0992   10.5199   29.4445 Q=    0.4170 A=    0.0000 R=    0.0000 C=    0.0000
 XYZ=    8.7647   15.1180   29.5020 Q=   -0.8340 A=    0.0000 R=    0.0000 C=    0.0000
 XYZ=    9.4097   15.8073   29.3434 Q=    0.4170 A=    0.0000 R=    0.0000 C=    0.0000
 XYZ=    8.3279   15.3800   30.3125 Q=    0.4170 A=    0.0000 R=    0.0000 C=    0.0000
 XYZ=   19.1881    9.7209    6.6407 Q=   -0.8340 A=    0.0000 R=    0.0000 C=    0.0000
 XYZ=   19.0599    8.9480    7.1907 Q=    0.4170 A=    0.0000 R=    0.0000 C=    0.0000
 XYZ=   20.0309    9.5732    6.2119 Q=    0.4170 A=    0.0000 R=    0.0000 C=    0.0000
 XYZ=   10.7266   19.4302    8.2105 Q=   -0.8340 A=    0.0000 R=    0.0000 C=    0.0000
 XYZ=   11.4433   19.3258    7.5846 Q=    0.4170 A=    0.0000 R=    0.0000 C=    0.0000
 XYZ=   10.4148   18.5392    8.3691 Q=    0.4170 A=    0.0000 R=    0.0000 C=    0.0000
 XYZ=   13.9289   19.0956   22.5329 Q=   -0.8340 A=    0.0000 R=    0.0000 C=    0.0000
 XYZ=   14.3980   19.6329   21.8946 Q=    0.4170 A=    0.0000 R=    0.0000 C=    0.0000
 XYZ=   13.0534   18.9901   22.1605 Q=    0.4170 A=    0.0000 R=    0.0000 C=    0.0000
 XYZ=   21.6412   11.1897   12.9852 Q=   -0.8340 A=    0.0000 R=    0.0000 C=    0.0000
 XYZ=   21.9498   11.0472   12.0904 Q=    0.4170 A=    0.0000 R=    0.0000 C=    0.0000
 XYZ=   21.6644   10.3217   13.3881 Q=    0.4170 A=    0.0000 R=    0.0000 C=    0.0000
 XYZ=    6.6016    6.9808   23.0819 Q=   -0.8340 A=    0.0000 R=    0.0000 C=    0.0000
 XYZ=    7.3107    7.6091   23.2187 Q=    0.4170 A=    0.0000 R=    0.0000 C=    0.0000
 XYZ=    6.4980    6.9391   22.1313 Q=    0.4170 A=    0.0000 R=    0.0000 C=    0.0000
 XYZ=   30.5340   14.0397   16.8018 Q=   -0.8340 A=    0.0000 R=    0.0000 C=    0.0000
 XYZ=   30.8221   13.7672   17.6730 Q=    0.4170 A=    0.0000 R=    0.0000 C=    0.0000
 XYZ=   30.8131   14.9526   16.7315 Q=    0.4170 A=    0.0000 R=    0.0000 C=    0.0000
 XYZ=   21.8794    8.1084    6.3536 Q=   -0.8340 A=    0.0000 R=    0.0000 C=    0.0000
 XYZ=   22.2816    8.5131    5.5850 Q=    0.4170 A=    0.0000 R=    0.0000 C=    0.0000
 XYZ=   22.2607    7.2312    6.3901 Q=    0.4170 A=    0.0000 R=    0.0000 C=    0.0000
 XYZ=   14.1781   25.5420    7.8179 Q=   -0.8340 A=    0.0000 R=    0.0000 C=    0.0000
 XYZ=   13.3491   25.4082    7.3584 Q=    0.4170 A=    0.0000 R=    0.0000 C=    0.0000
 XYZ=   13.9847   26.2143    8.4711 Q=    0.4170 A=    0.0000 R=    0.0000 C=    0.0000
 XYZ=    8.8155    8.6072   19.7700 Q=   -0.8340 A=    0.0000 R=    0.0000 C=    0.0000
 XYZ=    8.6942    9.0590   20.6051 Q=    0.4170 A=    0.0000 R=    0.0000 C=    0.0000
 XYZ=    7.9306    8.5116   19.4181 Q=    0.4170 A=    0.0000 R=    0.0000 C=    0.0000
 XYZ=   15.4552   29.4338   17.8562 Q=   -0.8340 A=    0.0000 R=    0.0000 C=    0.0000
 XYZ=   15.6314   30.3695   17.9542 Q=    0.4170 A=    0.0000 R=    0.0000 C=    0.0000
 XYZ=   14.5419   29.3323   18.1240 Q=    0.4170 A=    0.0000 R=    0.0000 C=    0.0000
 XYZ=    9.4384   18.3499   27.2975 Q=   -0.8340 A=    0.0000 R=    0.0000 C=    0.0000
 XYZ=    8.7058   17.7763   27.0729 Q=    0.4170 A=    0.0000 R=    0.0000 C=    0.0000
 XYZ=   10.1855   17.9807   26.8265 Q=    0.4170 A=    0.0000 R=    0.0000 C=    0.0000
 XYZ=   12.6210    2.8935   20.5503 Q=   -0.8340 A=    0.0000 R=    0.0000 C=    0.0000
 XYZ=   12.7822    2.5999   21.4470 Q=    0.4170 A=    0.0000 R=    0.0000 C=    0.0000
 XYZ=   13.1918    3.6540   20.4404 Q=    0.4170 A=    0.0000 R=    0.0000 C=    0.0000
 XYZ=   22.6902   26.6045    9.9937 Q=   -0.8340 A=    0.0000 R=    0.0000 C=    0.0000
 XYZ=   21.8130   26.2237    9.9528 Q=    0.4170 A=    0.0000 R=    0.0000 C=    0.0000
 XYZ=   22.8210   26.8069   10.9201 Q=    0.4170 A=    0.0000 R=    0.0000 C=    0.0000
 XYZ=   12.6823   11.2915   10.8089 Q=   -0.8340 A=    0.0000 R=    0.0000 C=    0.0000
 XYZ=   13.1624   10.4635   10.8212 Q=    0.4170 A=    0.0000 R=    0.0000 C=    0.0000
 XYZ=   12.6065   11.5112    9.8803 Q=    0.4170 A=    0.0000 R=    0.0000 C=    0.0000
 XYZ=   11.4037   15.0145   25.5611 Q=   -0.8340 A=    0.0000 R=    0.0000 C=    0.0000
 XYZ=   11.9759   14.9825   24.7944 Q=    0.4170 A=    0.0000 R=    0.0000 C=    0.0000
 XYZ=   11.0209   15.8915   25.5384 Q=    0.4170 A=    0.0000 R=    0.0000 C=    0.0000
 XYZ=   24.2161   14.1331   13.5086 Q=   -0.8340 A=    0.0000 R=    0.0000 C=    0.0000
 XYZ=   24.1640   13.1830   13.6127 Q=    0.4170 A=    0.0000 R=    0.0000 C=    0.0000
 XYZ=   23.3361   14.3933   13.2364 Q=    0.4170 A=    0.0000 R=    0.0000 C=    0.0000
 XYZ=   26.5440   11.3313   17.3567 Q=   -0.8340 A=    0.0000 R=    0.0000 C=    0.0000
 XYZ=   26.9925   10.5846   17.7535 Q=    0.4170 A=    0.0000 R=    0.0000 C=    0.0000
 XYZ=   27.0034   12.0975   17.7004 Q=    0.4170 A=    0.0000 R=    0.0000 C=    0.0000
 XYZ=   18.7540   24.5358   23.7613 Q=   -0.8340 A=    0.0000 R=    0.0000 C=    0.0000
 XYZ=   18.7740   24.7970   22.8407 Q=    0.4170 A=    0.0000 R=    0.0000 C=    0.0000
 XYZ=   17.8430   24.6613   24.0267 Q=    0.4170 A=    0.0000 R=    0.0000 C=    0.0000
 XYZ=    9.4400   13.0267   10.2233 Q=   -0.8340 A=    0.0000 R=    0.0000 C=    0.0000
 XYZ=    9.7651   12.2697    9.7361 Q=    0.4170 A=    0.0000 R=    0.0000 C=    0.0000
 XYZ=    9.6067   12.8112   11.1409 Q=    0.4170 A=    0.0000 R=    0.0000 C=    0.0000
 XYZ=    9.8230   24.8237   21.7710 Q=   -0.8340 A=    0.0000 R=    0.0000 C=    0.0000
 XYZ=    9.4657   24.0889   22.2695 Q=    0.4170 A=    0.0000 R=    0.0000 C=    0.0000
 XYZ=   10.6932   24.5301   21.5012 Q=    0.4170 A=    0.0000 R=    0.0000 C=    0.0000
 XYZ=    9.9693   14.6359    4.3650 Q=   -0.8340 A=    0.0000 R=    0.0000 C=    0.0000
 XYZ=   10.7597   14.7545    4.8917 Q=    0.4170 A=    0.0000 R=    0.0000 C=    0.0000
 XYZ=   10.2011   13.9541    3.7344 Q=    0.4170 A=    0.0000 R=    0.0000 C=    0.0000
 XYZ=   26.5968   24.4056   14.2822 Q=   -0.8340 A=    0.0000 R=    0.0000 C=    0.0000
 XYZ=   26.6723   23.4632   14.1326 Q=    0.4170 A=    0.0000 R=    0.0000 C=    0.0000
 XYZ=   25.8045   24.6610   13.8097 Q=    0.4170 A=    0.0000 R=    0.0000 C=    0.0000
 XYZ=    7.9922   25.7503   17.0071 Q=   -0.8340 A=    0.0000 R=    0.0000 C=    0.0000
 XYZ=    8.7937   25.5295   17.4814 Q=    0.4170 A=    0.0000 R=    0.0000 C=    0.0000
 XYZ=    7.3073   25.7408   17.6757 Q=    0.4170 A=    0.0000 R=    0.0000 C=    0.0000
 XYZ=   20.3150   14.3099    3.4531 Q=   -0.8340 A=    0.0000 R=    0.0000 C=    0.0000
 XYZ=   20.1549   15.2277    3.2334 Q=    0.4170 A=    0.0000 R=    0.0000 C=    0.0000
 XYZ=   21.1718   14.3112    3.8800 Q=    0.4170 A=    0.0000 R=    0.0000 C=    0.0000
 XYZ=    6.9075   13.8062    9.1685 Q=   -0.8340 A=    0.0000 R=    0.0000 C=    0.0000
 XYZ=    7.7755   13.6151    9.5240 Q=    0.4170 A=    0.0000 R=    0.0000 C=    0.0000
 XYZ=    6.3571   13.0879    9.4804 Q=    0.4170 A=    0.0000 R=    0.0000 C=    0.0000
 XYZ=   12.9531    6.3600   15.5168 Q=   -0.8340 A=    0.0000 R=    0.0000 C=    0.0000
 XYZ=   12.0692    5.9941   15.4818 Q=    0.4170 A=    0.0000 R=    0.0000 C=    0.0000
 XYZ=   13.5222    5.6387   15.2484 Q=    0.4170 A=    0.0000 R=    0.0000 C=    0.0000
 XYZ=   22.3113    9.0772   19.9475 Q=   -0.8340 A=    0.0000 R=    0.0000 C=    0.0000
 XYZ=   22.1067    8.9322   20.8712 Q=    0.4170 A=    0.0000 R=    0.0000 C=    0.0000
 XYZ=   21.6107    9.6487   19.6333 Q=    0.4170 A=    0.0000 R=    0.0000 C=    0.0000
 XYZ=   13.7034    7.7030   17.9704 Q=   -0.8340 A=    0.0000 R=    0.0000 C=    0.0000
 XYZ=   13.5414    7.0772   17.2645 Q=    0.4170 A=    0.0000 R=    0.0000 C=    0.0000
 XYZ=   12.8308    7.9556   18.2721 Q=    0.4170 A=    0.0000 R=    0.0000 C=    0.0000
 XYZ=   10.0815    7.4155   13.5320 Q=   -0.8340 A=    0.0000 R=    0.0000 C=    0.0000
 XYZ=    9.2341    7.5214   13.0997 Q=    0.4170 A=    0.0000 R=    0.0000 C=    0.0000
 XYZ=   10.7213    7.6980   12.8785 Q=    0.4170 A=    0.0000 R=    0.0000 C=    0.0000
 XYZ=    8.0372   21.2761   15.4277 Q=   -0.8340 A=    0.0000 R=    0.0000 C=    0.0000
 XYZ=    8.8268   21.4162   15.9503 Q=    0.4170 A=    0.0000 R=    0.0000 C=    0.0000
 XYZ=    8.2630   21.6067   14.5583 Q=    0.4170 A=    0.0000 R=    0.0000 C=    0.0000
 XYZ=    4.2262   12.2374   18.9548 Q=   -0.8340 A=    0.0000 R=    0.0000 C=    0.0000
 XYZ=    4.3525   11.9128   18.0632 Q=    0.4170 A=    0.0000 R=    0.0000 C=    0.0000
 XYZ=    3.2776   12.3277   19.0453 Q=    0.4170 A=    0.0000 R=    0.0000 C=    0.0000
 XYZ=   14.8283   10.5082   28.0606 Q=   -0.8340 A=    0.0000 R=    0.0000 C=    0.0000
 XYZ=   15.4013   10.8512   27.3750 Q=    0.4170 A=    0.0000 R=    0.0000 C=    0.0000
 XYZ=   14.0186   10.2791   27.6043 Q=    0.4170 A=    0.0000 R=    0.0000 C=    0.0000
 XYZ=   28.2100   18.4524   18.9463 Q=   -0.8340 A=    0.0000 R=    0.0000 C=    0.0000
 XYZ=   27.6352   17.8848   19.4597 Q=    0.4170 A=    0.0000 R=    0.0000 C=    0.0000
 XYZ=   28.9513   18.6302   19.5252 Q=    0.4170 A=    0.0000 R=    0.0000 C=    0.0000
 XYZ=    6.9322    6.1251   20.3700 Q=   -0.8340 A=    0.0000 R=    0.0000 C=    0.0000
 XYZ=    6.0832    5.8501   20.0238 Q=    0.4170 A=    0.0000 R=    0.0000 C=    0.0000
 XYZ=    7.5530    5.4873   20.0177 Q=    0.4170 A=    0.0000 R=    0.0000 C=    0.0000
 XYZ=    6.3590   22.1328   12.4202 Q=   -0.8340 A=    0.0000 R=    0.0000 C=    0.0000
 XYZ=    6.4996   22.4410   11.5249 Q=    0.4170 A=    0.0000 R=    0.0000 C=    0.0000
 XYZ=    6.5291   21.1917   12.3796 Q=    0.4170 A=    0.0000 R=    0.0000 C=    0.0000
 XYZ=   20.4825    4.8109   25.6560 Q=   -0.8340 A=    0.0000 R=    0.0000 C=    0.0000
 XYZ=   19.8754    4.0990   25.4540 Q=    0.4170 A=    0.0000 R=    0.0000 C=    0.0000
 XYZ=   19.9375    5.5978   25.6581 Q=    0.4170 A=    0.0000 R=    0.0000 C=    0.0000
 XYZ=   24.8053   19.7530    6.9239 Q=   -0.8340 A=    0.0000 R=    0.0000 C=    0.0000
 XYZ=   24.1095   20.2661    6.5130 Q=    0.4170 A=    0.0000 R=    0.0000 C=    0.0000
 XYZ=   24.4679   19.5454    7.7953 Q=    0.4170 A=    0.0000 R=    0.0000 C=    0.0000
 XYZ=   18.8190   12.5178   28.7736 Q=   -0.8340 A=    0.0000 R=    0.0000 C=    0.0000
 XYZ=   19.3514   12.8030   29.5162 Q=    0.4170 A=    0.0000 R=    0.0000 C=    0.0000
 XYZ=   18.2483   11.8391   29.1341 Q=    0.4170 A=    0.0000 R=    0.0000 C=    0.0000
 XYZ=   24.7927   16.1247    8.6210 Q=   -0.8340 A=    0.0000 R=    0.0000 C=    0.0000
 XYZ=   23.8568   16.3242    8.5993 Q=    0.4170 A=    0.0000 R=    0.0000 C=    0.0000
 XYZ=   25.0669   16.3561    9.5085 Q=    0.4170 A=    0.0000 R=    0.0000 C=    0.0000
 XYZ=   13.5986   21.1167    5.6853 Q=   -0.8340 A=    0.0000 R=    0.0000 C=    0.0000
 XYZ=   14.0432   21.1218    6.5330 Q=    0.4170 A=    0.0000 R=    0.0000 C=    0.0000
 XYZ=   14.2812   21.3468    5.0549 Q=    0.4170 A=    0.0000 R=    0.0000 C=    0.0000
 XYZ=   14.9043    7.3358   20.6867 Q=   -0.8340 A=    0.0000 R=    0.0000 C=    0.0000
 XYZ=   15.7280    7.6809   21.0309 Q=    0.4170 A=    0.0000 R=    0.0000 C=    0.0000
 XYZ=   14.8799    7.6348   19.7778 Q=    0.4170 A=    0.0000 R=    0.0000 C=    0.0000
 XYZ=   26.8123   14.4180   13.8540 Q=   -0.8340 A=    0.0000 R=    0.0000 C=    0.0000
 XYZ=   26.7406   14.9319   14.6583 Q=    0.4170 A=    0.0000 R=    0.0000 C=    0.0000
 XYZ=   25.9377   14.4549   13.4668 Q=    0.4170 A=    0.0000 R=    0.0000 C=    0.0000
 XYZ=    6.8243   14.8396   17.5318 Q=   -0.8340 A=    0.0000 R=    0.0000 C=    0.0000
 XYZ=    7.2454   13.9987   17.7104 Q=    0.4170 A=    0.0000 R=    0.0000 C=    0.0000
 XYZ=    6.7434   15.2546   18.3906 Q=    0.4170 A=    0.0000 R=    0.0000 C=    0.0000
 XYZ=   10.5640   27.3070   18.9550 Q=   -0.8340 A=    0.0000 R=    0.0000 C=    0.0000
 XYZ=    9.6791   27.5907   19.1845 Q=    0.4170 A=    0.0000 R=    0.0000 C=    0.0000
 XYZ=   10.5309   26.3517   19.0070 Q=    0.4170 A=    0.0000 R=    0.0000 C=    0.0000
 XYZ=   17.7744   14.8330   27.6425 Q=   -0.8340 A=    0.0000 R=    0.0000 C=    0.0000
 XYZ=   18.0696   13.9545   27.8822 Q=    0.4170 A=    0.0000 R=    0.0000 C=    0.0000
 XYZ=   17.6014   15.2647   28.4791 Q=    0.4170 A=    0.0000 R=    0.0000 C=    0.0000
 XYZ=   30.1094   12.5335   19.5683 Q=   -0.8340 A=    0.0000 R=    0.0000 C=    0.0000
 XYZ=   30.9465   12.3954   20.0116 Q=    0.4170 A=    0.0000 R=    0.0000 C=    0.0000
 XYZ=   29.4679   12.5825   20.2770 Q=    0.4170 A=    0.0000 R=    0.0000 C=    0.0000
 XYZ=   25.9494    9.6918    8.7080 Q=   -0.8340 A=    0.0000 R=    0.0000 C=    0.0000
 XYZ=   26.0023   10.4728    8.1572 Q=    0.4170 A=    0.0000 R=    0.0000 C=    0.0000
 XYZ=   26.0999   10.0142    9.5966 Q=    0.4170 A=    0.0000 R=    0.0000 C=    0.0000
 XYZ=   30.1934   18.8959   20.8212 Q=   -0.8340 A=    0.0000 R=    0.0000 C=    0.0000
 XYZ=   30.0554   19.5429   21.5130 Q=    0.4170 A=    0.0000 R=    0.0000 C=    0.0000
 XYZ=   30.3143   18.0685   21.2871 Q=    0.4170 A=    0.0000 R=    0.0000 C=    0.0000
 XYZ=   15.3884   19.9321    2.7105 Q=   -0.8340 A=    0.0000 R=    0.0000 C=    0.0000
 XYZ=   15.8698   20.6299    3.1549 Q=    0.4170 A=    0.0000 R=    0.0000 C=    0.0000
 XYZ=   14.6900   20.3854    2.2383 Q=    0.4170 A=    0.0000 R=    0.0000 C=    0.0000
 XYZ=   18.0926    4.2473   14.5819 Q=   -0.8340 A=    0.0000 R=    0.0000 C=    0.0000
 XYZ=   18.4616    4.4058   15.4508 Q=    0.4170 A=    0.0000 R=    0.0000 C=    0.0000
 XYZ=   17.1457    4.2368   14.7216 Q=    0.4170 A=    0.0000 R=    0.0000 C=    0.0000
 XYZ=   14.6132   12.8692    8.8616 Q=   -0.8340 A=    0.0000 R=    0.0000 C=    0.0000
 XYZ=   13.7066   12.7730    8.5703 Q=    0.4170 A=    0.0000 R=    0.0000 C=    0.0000
 XYZ=   14.9113   13.6824    8.4540 Q=    0.4170 A=    0.0000 R=    0.0000 C=    0.0000
 XYZ=   23.5540   14.4155    6.7388 Q=   -0.8340 A=    0.0000 R=    0.0000 C=    0.0000
 XYZ=   23.2853   15.0286    6.0546 Q=    0.4170 A=    0.0000 R=    0.0000 C=    0.0000
 XYZ=   24.1899   14.9034    7.2620 Q=    0.4170 A=    0.0000 R=    0.0000 C=    0.0000
 XYZ=   21.1544   23.3086   11.7707 Q=   -0.8340 A=    0.0000 R=    0.0000 C=    0.0000
 XYZ=   20.5666   22.6760   11.3577 Q=    0.4170 A=    0.0000 R=    0.0000 C=    0.0000
 XYZ=   21.7453   23.5809   11.0687 Q=    0.4170 A=    0.0000 R=    0.0000 C=    0.0000
 XYZ=   17.0900   20.4963   22.2504 Q=   -0.8340 A=    0.0000 R=    0.0000 C=    0.0000
 XYZ=   16.7771   20.9535   23.0310 Q=    0.4170 A=    0.0000 R=    0.0000 C=    0.0000
 XYZ=   17.6483   19.7967   22.5897 Q=    0.4170 A=    0.0000 R=    0.0000 C=    0.0000
 XYZ=    7.3755   16.4258   21.7841 Q=   -0.8340 A=    0.0000 R=    0.0000 C=    0.0000
 XYZ=    7.3448   16.0449   20.9065 Q=    0.4170 A=    0.0000 R=    0.0000 C=    0.0000
 XYZ=    7.1686   15.6972   22.3694 Q=    0.4170 A=    0.0000 R=    0.0000 C=    0.0000
 XYZ=    6.5366   14.5450    6.1856 Q=   -0.8340 A=    0.0000 R=    0.0000 C=    0.0000
 XYZ=    7.4574   14.7172    5.9892 Q=    0.4170 A=    0.0000 R=    0.0000 C=    0.0000
 XYZ=    6.2284   15.3448    6.6118 Q=    0.4170 A=    0.0000 R=    0.0000 C=    0.0000
 XYZ=   11.1049   24.0123   28.9548 Q=   -0.8340 A=    0.0000 R=    0.0000 C=    0.0000
 XYZ=   10.2326   24.0017   29.3489 Q=    0.4170 A=    0.0000 R=    0.0000 C=    0.0000
 XYZ=   11.0550   23.3727   28.2444 Q=    0.4170 A=    0.0000 R=    0.0000 C=    0.0000
 XYZ=   17.4914   18.9471    1.4447 Q=   -0.8340 A=    0.0000 R=    0.0000 C=    0.0000
 XYZ=   17.9260   19.7990    1.4065 Q=    0.4170 A=    0.0000 R=    0.0000 C=    0.0000
 XYZ=   16.8472   19.0375    2.1469 Q=    0.4170 A=    0.0000 R=    0.0000 C=    0.0000
 XYZ=   18.3202   29.7691   22.2915 Q=   -0.8340 A=    0.0000 R=    0.0000 C=    0.0000
 XYZ=   17.9852   29.9337   23.1729 Q=    0.4170 A=    0.0000 R=    0.0000 C=    0.0000
 XYZ=   17.5739   29.9365   21.7159 Q=    0.4170 A=    0.0000 R=    0.0000 C=    0.0000
 XYZ=    6.7190   15.1552   24.3257 Q=   -0.8340 A=    0.0000 R=    0.0000 C=    0.0000
 XYZ=    6.7972   15.5977   25.1709 Q=    0.4170 A=    0.0000 R=    0.0000 C=    0.0000
 XYZ=    6.6878   14.2238   24.5445 Q=    0.4170 A=    0.0000 R=    0.0000 C=    0.0000
 XYZ=    2.7373   16.4879   21.0608 Q=   -0.8340 A=    0.0000 R=    0.0000 C=    0.0000
 XYZ=    2.8596   16.4836   22.0101 Q=    0.4170 A=    0.0000 R=    0.0000 C=    0.0000
 XYZ=    3.6251   16.5220   20.7046 Q=    0.4170 A=    0.0000 R=    0.0000 C=    0.0000
[...]
 ,-0.00010119,-0.00000421,-0.00033924,0.00005651,0.00000082,0.00009638,
 0.00001080,0.00000051,0.00018425,-0.00066646,-0.00108486,-0.00077687,-
 0.00002079,0.00027643,-0.00016166,0.00026387,-0.00012762,0.00028265,0.
 00008019,0.00021314,0.00046562,-0.00013731,-0.00041731,-0.00038018,0.0
 0000470,0.00001971,-0.00018305,0.21095353,0.15944401,0.11899879,0.0001
 4360,0.00015390,-0.00009886,0.00004315,0.00001540,-0.00012541,0.000019
 91,-0.00005780,0.00013427,0.00013251,0.00014823,-0.00008740,-0.0000724
 9,-0.00003338,0.00008278,0.00000297,-0.00000746,-0.00002391,-0.0001003
 7,0.00008051,-0.00008231,-0.00010371,-0.00010803,0.00004566,-0.0001015
 6,-0.00005867,0.00012246,-0.00012047,-0.00012446,0.00014640,0.00000649
 ,-0.00001573,-0.00002132,0.00003803,-0.00000598,0.00000798,0.00022317,
 0.00048173,-0.00043790,0.00001875,-0.00026133,0.00005056,-0.00041234,-
 0.00035306,0.00026727,-0.00005468,0.00000998,-0.00002330,0.00004857,-0
 .00001420,0.00000473,0.00002776,-0.00000082,0.00002055,-0.00025795,-0.
 00006945,-0.00020876,0.00016882,-0.00002594,0.00021549,0.00019337,0.00
 012448,-0.00000539,-0.00005570,-0.00002249,-0.00008799,0.00003118,0.00
 002619,0.00005341,0.00000612,0.00000497,0.00006590,-0.00071751,0.00001
 586,0.00059930,0.00059713,-0.00024408,-0.00143909,-0.00010376,0.000018
 95,-0.00000541,0.00013406,-0.00001692,0.00013131,-0.00003010,0.0000557
 4,-0.00000300,-0.00001944,-0.00002353,-0.00006261,0.00005195,-0.000069
 34,0.00003765,-0.00009089,0.00007904,-0.00004745,-0.00003094,0.0000322
 9,-0.00000527,0.00000972,-0.00003312,0.00002643,0.00000081,0.00000053,
 -0.00002517,-0.00001733,0.00001196,-0.00003443,-0.00001981,-0.00000037
 ,0.00001433,0.00000689,0.00000031,-0.00000490,0.00001444,-0.00000187,-
 0.00001263,-0.00001376,0.00000374,0.00005615,0.00000935,0.00000457,-0.
 00001773,0.00000822,-0.00000636,-0.00003438,-0.00001601,-0.00004081,0.
 00003940,0.00001792,0.00002645,-0.00002678,-0.00000344,0.00001914,-0.0
 0002258,-0.00000647,-0.00000659,0.00002352,0.00000392,0.00000188,-0.00
 001008,0.00000252,0.00000394,-0.00001480,-0.00001356,-0.00001832,0.000
 00577,0.00000434,0.00000926,-0.00000537,0.00001004,0.00000571,0.000000
 35,-0.00018235,-0.00079928,0.00009392,0.00093945,0.00045899,-0.0000481
 1,-0.00000832,0.00006127,-0.00010293,0.00000210,-0.00002637,0.00003799
 ,-0.00000520,0.00000448,-0.00000783,0.00001245,0.00002471,-0.00001957,
 -0.00001271,-0.00001958,0.00001944,-0.00000044,0.00000883,-0.00000753,
 0.00000827,0.00001086,-0.00000752,0.00003714,-0.00000342,0.00006807,-0
 .00001485,0.00001740,-0.00002545,-0.00001226,-0.00000332,-0.00001525,-
 0.00001843,-0.00002390,0.00001844,0.00001127,0.00002545,-0.00002280,0.
 00000750,0.00000520,-0.00000494,-0.00003240,-0.00000508,0.00002169,0.0
 0000748,0.00000436,-0.00000676,0.00002448,0.00000572,-0.00000123,-0.00
 006364,0.00001227,0.00009168,0.00002847,-0.00002118,-0.00005123,0.0000
 0864,0.00000408,-0.00002542,-0.00009333,-0.00000317,0.00000317,0.00006
 515,0.00003499,0.00000179,0.00002133,0.00000983,-0.00001163,-0.5008366
 5,0.00702234,-0.17027727,0.51355420,0.00010257,0.00021653,0.00022152,-
 0.00007005,-0.00002807,0.00028772,0.00003800,-0.00044800,-0.00011978,0
 .00046826,0.00101127,0.00132407,-0.00004625,-0.00015894,-0.00045097,0.
 00000720,0.00000070,-0.00001420,-0.00016709,0.00030630,-0.00026787,-0.
 00042830,-0.00058276,-0.00114777,-0.00002155,-0.00006005,-0.00007935,-
 0.00004290,-0.00008040,-0.00013447,0.00000087,0.00004388,0.00004762,0.
 00001420,-0.00001535,0.00006707,0.00073567,0.00022356,-0.00063967,-0.0
 0031037,-0.00031889,0.00018836,-0.00054873,0.00010470,0.00019901,-0.00
 000014,-0.00003238,-0.00003338,-0.00000399,0.00001684,0.00002574,-0.00
 000091,0.00002470,0.00001174,-0.00011535,-0.00032427,-0.00019649,0.000
 06334,0.00005923,0.00030971,0.00015043,0.00030129,-0.00005845,-0.00001
 305,-0.00015011,0.00004438,-0.00002269,0.00013921,0.00003660,0.0000115
 2,0.00005892,-0.00002326,0.00026555,-0.00075579,0.00086536,-0.00058533
 ,0.00070300,-0.00045573,-0.00009722,-0.00005416,-0.00012646,0.00003584
 ,-0.00005999,0.00002018,-0.00005398,0.00001225,-0.00003455,-0.00003008
 ,0.00002716,-0.00002409,-0.00036183,-0.00027728,-0.00017356,0.00054816
 ,0.00031013,0.00022742,0.00005167,0.00007657,0.00000256,0.00008578,-0.
 00012775,0.00005334,-0.00002463,0.00015587,0.00003675,0.00000244,0.000
 01357,-0.00003942,-0.00000523,-0.00001702,-0.00002237,0.00000184,0.000
 00726,0.00000365,0.00000607,0.00001698,0.00002165,0.00002593,-0.000072
 23,0.00003487,0.00001728,0.00002906,-0.00000401,-0.00000853,0.00001992
 ,-0.00001127,-0.00008816,0.00000961,-0.00008774,0.00007784,-0.00000267
 ,0.00008086,0.00003640,0.00001179,0.00002925,-0.00002274,-0.00003616,-
 0.00001625,0.00000497,0.00000782,0.00000427,0.00001404,0.00001678,0.00
 001674,-0.00002464,-0.00001235,-0.00004540,0.00001169,0.00000725,0.000
 01738,0.00000988,-0.00000332,0.00002623,-0.00109181,0.00143931,-0.0001
 6344,-0.00015023,-0.00292689,-0.00060981,0.00035102,-0.00025604,0.0005
 8333,-0.00002219,-0.00007060,0.00002474,0.00000186,0.00001421,0.000002
 06,0.00004214,0.00004975,-0.00001065,-0.00004889,-0.00004997,-0.000028
 05,0.00001486,0.00001519,0.00001309,0.00002515,0.00001402,0.00002073,0
 .00002205,-0.00004774,0.00002867,-0.00000073,0.00005231,-0.00001260,-0
 .00000725,0.00001316,-0.00001039,-0.00003693,0.00001767,-0.00006539,0.
 00002183,-0.00002699,0.00005014,0.00000835,0.00001047,0.00003156,-0.00
 000664,-0.00005790,0.00000925,0.00000455,0.00001598,-0.00000746,0.0000
 0266,0.00002956,-0.00001638,0.00009116,-0.00006288,0.00015823,-0.00004
 027,0.00001156,-0.00007694,-0.00005575,0.00006895,-0.00006011,-0.00008
 314,0.00017902,-0.00019183,0.00008965,-0.00005048,0.00015506,0.0000409
 3,-0.00009876,0.00004810,0.06073221,-0.04267205,0.00998192,-0.01743040
 ,0.04184373,0.00002173,0.00024603,-0.00023856,0.00000278,-0.00002136,-
 0.00017356,-0.00002790,-0.00000103,0.00009010,-0.00010488,0.00044004,-
 0.00006698,0.00009317,-0.00002359,-0.00001298,-0.00006964,-0.00000023,
 -0.00000879,-0.00005094,-0.00006054,-0.00008791,0.00012019,-0.00036736
 ,-0.00021241,-0.00002914,-0.00011525,0.00017410,0.00002931,-0.00016174
 ,0.00005514,-0.00005648,0.00000416,-0.00007623,-0.00003371,0.00006184,
 -0.00000545,-0.00061593,-0.00055669,-0.00000253,0.00009430,0.00021891,
 0.00016185,0.00047261,0.00023266,0.00021450,-0.00000412,-0.00003078,0.
 00010786,-0.00000063,0.00003074,-0.00006002,-0.00001111,-0.00000111,-0
 .00007000,-0.00018538,-0.00036226,0.00053459,0.00005189,0.00029183,-0.
 00022205,0.00015291,0.00039399,-0.00061872,-0.00018711,0.00007667,0.00
 026634,0.00012691,-0.00006002,-0.00021860,0.00010433,-0.00002759,-0.00
 006742,0.00115995,0.00088787,0.00249710,-0.00307849,-0.00054819,-0.001
 85394,-0.00035915,-0.00078010,-0.00041098,0.00010812,-0.00002444,-0.00
 011104,-0.00002348,0.00002113,0.00001879,-0.00010175,-0.00001262,0.000
 01624,-0.00007924,-0.00009996,-0.00019823,0.00015912,0.00010667,0.0002
 0386,0.00001859,0.00002104,0.00006044,0.00009851,-0.00004259,-0.000068
 93,-0.00003660,0.00006447,0.00006625,-0.00002921,-0.00000014,0.0000257
 3,0.00002472,-0.00002730,0.00006377,-0.00000973,0.00000649,-0.00002346
 ,-0.00002070,0.00000702,-0.00005694,0.00013657,0.00000723,0.00006452,-
 0.00001746,-0.00000509,-0.00002335,-0.00007458,-0.00000942,0.00002326,
 0.00006679,-0.00006969,-0.00009435,-0.00008990,0.00008507,0.00008084,-
 0.00001597,0.00000950,0.00004589,0.00006863,-0.00000915,0.00003162,-0.
 00002293,0.00000410,-0.00001787,-0.00003613,0.00001196,-0.00000943,0.0
 0004662,-0.00009091,0.00000074,-0.00002191,0.00003752,-0.00001461,-0.0
 0001257,0.00003885,-0.00000145,-0.00036243,0.00066332,-0.00124887,-0.0
 0009160,-0.00089380,0.00127063,0.00000401,0.00027498,0.00047925,0.0000
 6817,-0.00000376,-0.00002128,-0.00002330,0.00000136,0.00000616,-0.0000
 5896,-0.00000014,0.00001098,0.00008738,-0.00004687,-0.00000151,-0.0000
 3228,0.00002392,0.00000635,-0.00003918,0.00004174,-0.00001124,0.000078
 34,0.00000856,-0.00001779,-0.00003097,0.00000027,0.00000160,-0.0000211
 6,-0.00001642,0.00000506,0.00002653,-0.00005101,-0.00003709,-0.0000118
 3,0.00002147,0.00001309,-0.00002637,0.00004104,0.00003281,0.00005015,-
 0.00000598,0.00010319,-0.00002046,-0.00000016,-0.00003229,-0.00001766,
 -0.00000022,-0.00006941,0.00030337,0.00035350,0.00027883,-0.00001415,-
 0.00007908,0.00005133,-0.00011655,0.00006859,-0.00009343,0.00000007,-0
 .00010557,-0.00015370,0.00000943,0.00015355,0.00010625,-0.00000158,0.0
 0000587,0.00006976,-0.15820656,-0.00858981,-0.06102464,0.17018334,0.00
 686479,0.06503667,0.00019274,0.00009697,0.00002250,0.00013914,0.000230
 50,0.00008653,-0.00037506,-0.00024544,-0.00043249,0.00035739,0.0004612
 7,0.00057698,-0.00010644,-0.00012600,-0.00007959,0.00007239,0.00006512
 ,-0.00018484,0.00030879,0.00057200,-0.00002147,-0.00023173,-0.00020742
 ,-0.00048464,-0.00013197,-0.00004373,0.00006356,-0.00021804,-0.0001346
 3,0.00001052,0.00009992,-0.00002649,0.00003369,0.00003821,-0.00003037,
 0.00003366,0.00012225,0.00024056,-0.00004619,-0.00000640,-0.00009465,0
 .00000392,-0.00011878,-0.00015754,-0.00000712,-0.00007231,0.00003000,-
 0.00007061,0.00006297,-0.00003250,0.00002745,0.00004500,-0.00000799,0.
 00005773,0.00007445,0.00040868,-0.00036208,0.00006297,-0.00016181,0.00
 007677,-0.00015419,-0.00049831,0.00047488,0.00007456,0.00000719,-0.000
 25866,-0.00005130,-0.00000964,0.00016534,-0.00005946,-0.00001339,0.000
 08737,-0.00104250,0.00006466,-0.00354018,0.00385089,-0.00065644,0.0048
 0815,0.00090189,0.00075095,0.00036680,0.00113016,0.00018220,0.00219981
 ,-0.00106261,0.00052049,-0.00055645,0.00021480,-0.00007264,-0.00063616
 ,-0.00037123,-0.00032056,-0.00013587,0.00046566,0.00002685,0.00006877,
 0.00004563,0.00018219,0.00006087,0.00036933,-0.00061008,0.00024778,0.0
 0007926,0.00033147,0.00007380,-0.00007933,0.00002167,-0.00024709,-0.00
 004948,0.00000617,-0.00000117,0.00001994,-0.00000055,-0.00000322,0.000
 03772,-0.00000190,0.00000583,-0.00023908,-0.00000263,0.00021153,0.0000
 4524,0.00004022,-0.00005228,0.00012910,-0.00003991,-0.00026624,-0.0000
 9721,-0.00002965,-0.00000258,0.00008663,0.00000163,0.00001415,0.000033
 20,0.00004441,0.00000222,-0.00008349,-0.00003687,0.00005640,0.00001924
 ,0.00000430,-0.00002218,0.00004511,0.00001969,-0.00002928,-0.00005117,
 -0.00001312,-0.00001008,0.00002498,0.00000656,-0.00000120,0.00001898,-
 0.00000389,0.00000873,-0.00001557,0.00127521,0.00028488,-0.00045349,-0
 .00040165,-0.00009923,0.00016307,-0.00024390,0.00013817,-0.00004430,-0
 .00020887,0.00023692,-0.00002333,0.00002640,-0.00002854,0.00015265,0.0
 0015518,-0.00010113,-0.00015617,-0.00008711,0.00005405,0.00002595,0.00
 003886,-0.00001700,0.00005999,0.00000052,0.00000332,0.00031139,-0.0000
 4960,0.00056012,-0.00009098,0.00019340,-0.00018696,-0.00007932,-0.0000
 2770,-0.00007557,-0.00004825,-0.00001862,-0.00000126,0.00002883,0.0000
 1788,-0.00000417,0.00002016,0.00000718,0.00000054,-0.00011637,-0.00002
 272,-0.00001526,0.00004038,0.00000999,-0.00000907,0.00006012,0.0000039
 5,0.00004135,-0.00067777,-0.00021524,-0.00003172,0.00018943,-0.0000573
 3,-0.00017954,0.00020086,-0.00010486,-0.00001007,-0.00007014,0.0000669
 4,-0.00006414,0.00006065,-0.00001322,0.00005554,0.00003281,-0.00003493
 ,0.00002036,-0.05979979,-0.06875058,-0.03753260,-0.01309631,-0.0456130
 6,-0.01649568,0.07548938,-0.00021608,-0.00028280,0.00045588,0.00003132
 ,0.00022778,0.00074777,-0.00033056,-0.00019756,0.00000474,-0.00003001,
 -0.00016122,0.00018313,0.00004890,0.00005997,-0.00026814,0.00000549,0.
 00013192,-0.00003036,0.00044841,-0.00056751,0.00029410,-0.00006807,0.0
 0011785,-0.00020241,0.00016639,0.00013309,-0.00039254,0.00023395,0.000
 17837,-0.00054814,0.00005400,0.00015540,0.00011749,0.00000581,-0.00002
 330,-0.00000382,0.00029221,0.00014225,-0.00016884,-0.00010194,-0.00010
 734,0.00003140,-0.00022143,-0.00002988,0.00005390,0.00004399,-0.000041
 03,-0.00007065,-0.00006018,0.00002600,0.00005855,-0.00000977,0.0000336
 6,0.00002947,0.00006426,-0.00009345,-0.00016621,-0.00002126,-0.0000341
 0,0.00010706,-0.00003461,0.00002702,0.00013159,0.00005448,-0.00016243,
 -0.00004671,-0.00006985,0.00012622,0.00009191,-0.00002078,0.00005592,0
 .00000138,0.00019103,-0.00268027,-0.00167834,-0.00075174,0.00479673,0.
 00376687,0.00066921,0.00090834,-0.00058999,0.00040086,-0.00092434,0.00
 047431,0.00012591,0.00062105,0.00028379,0.00006762,-0.00000832,-0.0001
 6433,-0.00021628,0.00012265,-0.00000261,0.00015791,-0.00019533,-0.0000
 5287,0.00009995,-0.00001666,-0.00001961,-0.00027796,-0.00033507,-0.000
 22549,0.00025954,-0.00003664,0.00008403,0.00003313,0.00006751,0.000071
 70,-0.00000922,-0.00001660,-0.00007240,0.00000465,0.00001056,0.0000159
 8,0.00000943,0.00003046,0.00007551,-0.00000787,-0.00023310,0.00005369,
 0.00005400,0.00008140,0.00001398,0.00000896,0.00006700,-0.00007443,-0.
 00006548,0.00008743,-0.00005346,0.00006648,-0.00007953,0.00002632,0.00
 004414,-0.00002343,0.00002333,-0.00007295,-0.00006957,-0.00005930,0.00
 001756,0.00001224,0.00001886,0.00004768,0.00001592,0.00005181,-0.00004
 473,0.00005802,-0.00004097,0.00002591,-0.00002375,0.00002995,0.0000085
 8,-0.00002943,0.00002141,-0.00015936,0.00035599,-0.00017802,-0.0000033
 1,-0.00056248,-0.00000630,0.00005552,-0.00010656,0.00006695,-0.0001147
 6,-0.00014952,-0.00004313,0.00002101,0.00002894,0.00000766,0.00011878,
 0.00004727,0.00000910,-0.00012650,-0.00001390,-0.00005123,0.00004045,0
 .00000174,0.00001474,0.00005161,-0.00002993,0.00003877,0.00009300,-0.0
 0016960,0.00014253,0.00001134,0.00019645,-0.00002173,-0.00002051,0.000
 04249,-0.00002521,-0.00002849,0.00005596,-0.00004407,0.00001165,-0.000
 05143,0.00004947,0.00001753,-0.00001782,0.00000962,-0.00003595,-0.0001
 1749,-0.00004419,0.00002091,0.00002823,-0.00000394,0.00001073,0.000054
 82,-0.00000733,-0.00012216,-0.00047496,0.00047005,-0.00002177,-0.00002
 055,-0.00043246,-0.00011312,0.00016140,-0.00011678,0.00000631,0.000138
 60,-0.00003000,-0.00000867,-0.00011273,0.00000929,0.00001249,-0.000056
 63,0.00000258,-0.12107493,-0.48546142,-0.16775187,0.00784476,0.0026942
 8,0.00289689,0.10575782,0.46793022,0.00016042,0.00051080,-0.00025046,-
 0.00002846,0.00020818,-0.00007623,-0.00008106,-0.00078798,-0.00016273,
 0.00050258,0.00131461,0.00118816,-0.00001359,-0.00018452,-0.00018591,-
 0.00012950,0.00002014,-0.00013105,-0.00022168,0.00053958,0.00028497,-0
 .00022211,-0.00077367,-0.00108596,-0.00011514,-0.00021770,0.00027665,-
 0.00003082,-0.00037838,-0.00004047,-0.00004629,0.00003516,-0.00008802,
 -0.00001643,0.00005297,0.00003774,0.00001659,-0.00007862,-0.00029859,-
 0.00005834,-0.00002574,0.00009245,-0.00002383,0.00002708,0.00014750,-0
 .00004090,-0.00004417,0.00010327,0.00002930,0.00003507,-0.00005775,0.0
 0000760,0.00001079,-0.00006607,-0.00055682,-0.00079358,0.00032368,0.00
 011327,0.00024148,0.00018106,0.00052918,0.00104261,-0.00074526,-0.0003
 1420,0.00001614,0.00027547,0.00019795,0.00004604,-0.00021259,0.0001324
 3,-0.00001956,-0.00002857,-0.00139219,-0.00091664,0.00283251,0.0042845
 6,0.00274144,-0.01026814,-0.00053441,-0.00082231,-0.00131846,0.0016283
 2,0.00013915,0.00002017,-0.00056505,0.00036156,0.00050296,-0.00019597,
 -0.00001077,-0.00026011,-0.00009829,0.00008659,-0.00023564,0.00010016,
 -0.00017519,0.00012295,0.00006035,-0.00005779,0.00006476,0.00015729,-0
 .00029743,-0.00050614,0.00004780,0.00003592,0.00026667,-0.00005775,0.0
 0005901,0.00010811,0.00001741,-0.00004445,0.00008338,-0.00000788,0.000
 01287,-0.00003378,-0.00001374,0.00001814,-0.00007164,0.00020895,-0.000
 02934,0.00021448,-0.00000242,0.00002414,-0.00005531,-0.00012701,-0.000
 02254,-0.00003798,0.00007316,-0.00005505,-0.00015076,-0.00010637,0.000
 08488,0.00011829,-0.00001107,0.00000243,0.00008557,0.00007958,-0.00004
 446,0.00004784,-0.00002820,0.00000907,-0.00002823,-0.00004212,0.000029
 02,-0.00000779,0.00004869,-0.00012769,-0.00001211,-0.00002303,0.000056
 25,-0.00001546,-0.00001071,0.00005041,0.00000517,-0.00000525,0.0004666
 8,0.00019804,-0.00012212,-0.00030489,-0.00024413,0.00005529,-0.0003149
 6,0.00020645,0.00009558,-0.00008323,-0.00006643,-0.00003815,0.00001257
 ,0.00001342,-0.00006339,0.00003224,0.00001637,0.00010203,-0.00009877,-
 0.00001414,-0.00004054,0.00004160,0.00001635,-0.00004076,0.00006740,-0
 .00000622,0.00028081,-0.00003853,0.00013761,-0.00008795,0.00010886,-0.
 00003040,-0.00006259,-0.00003774,0.00000849,0.00002315,-0.00005724,-0.
 00006559,-0.00001045,0.00001447,0.00003223,-0.00002876,0.00005565,0.00
 005155,0.00003373,-0.00005498,0.00016747,-0.00001908,0.00000947,-0.000
 05725,0.00000065,0.00002491,-0.00011044,0.00022803,0.00051269,0.000738
 30,0.00002499,-0.00025271,-0.00006307,-0.00019643,0.00013743,-0.000240
 87,-0.00003849,-0.00006447,-0.00015464,0.00005882,0.00012805,0.0001273
 0,-0.00000169,-0.00000120,0.00005970,-0.05071231,-0.14752765,-0.057942
 31,-0.00358907,-0.01627196,-0.00315595,0.04653539,0.15357875,0.0752666
 2\\-0.00076384,-0.04714794,-0.01431833,-0.01639857,-0.02067479,-0.0108
 6742,0.02112485,0.01076167,-0.01136344,-0.06635204,-0.09433724,-0.0721
 0009,0.03148068,0.04798445,0.01141528,0.02564884,0.02656086,0.01284142
 ,-0.00984724,-0.00931349,0.00132452,0.02840809,0.06492142,0.07597311,-
 0.00923300,-0.01021210,0.01965660,0.00566216,0.00799754,-0.01543440,-0
 .00554060,0.01308224,0.00697579,-0.00027714,0.00734390,-0.00712788,-0.
 00418032,-0.00096905,-0.01511139,-0.00183572,0.01899272,0.00888792,0.0
 1234021,-0.00881387,0.00627039,0.01220877,0.00289026,-0.01223706,-0.00
 808118,0.00964553,0.00691457,0.00323651,-0.00743458,-0.00008227,0.0039
 6619,0.00622299,-0.01799292,0.01083107,0.00683070,0.01046074,-0.010748
 68,-0.01267808,0.01533903,-0.00743118,-0.01332408,-0.01731958,-0.00090
 739,0.01235088,0.00574207,0.01100754,-0.00343021,0.00662619,0.01840374
 ,0.01099133,0.00533520,-0.00691727,0.00297067,0.00434536,-0.00659014,-
 0.02003273,-0.00909164,0.01630433,-0.02117577,0.00697265,-0.00418379,0
 .01818719,0.01358423,-0.00564657,-0.00798613,-0.00647433,-0.00360666,-
 0.00177975,-0.01098864,0.00896527,-0.00531701,0.00566600,-0.01555314,0
 .00343830,0.01067456,-0.00057459,-0.01032909,0.00676649,0.00862251,0.0
 0974666,0.00740923,-0.00913370,0.00290221,-0.01395771,-0.00838244,0.01
 717805,-0.00790856,-0.00519140,-0.00631408,-0.01015705,0.00661927,-0.0
 0115965,0.01505545,0.01485552,-0.00803509,-0.00942726,0.00180758,0.010
 90997,-0.00710248,-0.01612772,-0.00299770,0.00975807,-0.00022968,0.013
 71326,0.00362687,0.00740226,-0.00747480,0.00277854,-0.01024441,-0.0029
 3372,0.00230462,-0.00157237,-0.01955712,-0.00420100,-0.00394703,0.0101
 6762,-0.01997946,-0.00401489,0.00641606,0.01345555,-0.00318657,-0.0061
 7685,0.00351589,-0.00398594,-0.00641147,-0.02382953,0.01141418,0.00925
 263,0.00040393,-0.00643572,-0.00502011,0.01651733,0.00785405,-0.003461
 87,-0.00339239,0.00047417,0.00612810,-0.01295944,-0.01372634,-0.017689
 33,0.01217603,-0.01008726,0.00257693,-0.00544189,0.01912795,0.01110329
 ,-0.00545698,0.00034685,-0.01065298,-0.00265700,-0.01636578,0.02621797
 ,-0.00774981,0.01012842,0.00987804,0.00198924,0.00131465,-0.01345479,-
 0.00599023,0.00213339,0.02365956,-0.00180896,-0.00831358,-0.01349509,0
 .00134790,0.00290318,0.03150195,0.00037783,-0.00291456,-0.01163724,0.0
 1248338,-0.00322158,-0.00723882,-0.00972085,-0.00234155,0.01083902,0.0
 0849443,-0.00660734,-0.00790015,-0.01390190,0.01861816,-0.01459848,0.0
 0212237,0.02037378,-0.00425763,0.00596872,-0.00776384,-0.01777963,0.00
 489670,-0.01172755,0.00988944,-0.01152217,0.02118176,0.00096202,-0.000
 26029,-0.00550748,-0.01196639,-0.00807501,-0.01193220,0.01799102,0.006
 78769,-0.00402544,0.01045803,0.00685725,0.01050013,0.00028323,0.004282
 31,-0.01340609,-0.02933415,-0.00549802\\\@


 ONE OF THE BENEFITS OF A COLLEGE EDUCATION
 IS TO SHOW THE BOY ITS LITTLE AVAIL 
                                    EMERSON IN 'CULTURE'
 Job cpu time:       2 days  1 hours 39 minutes 18.7 seconds.
 Elapsed time:       0 days  1 hours 33 minutes 47.6 seconds.
 File lengths (MBytes):  RWF=   4706 Int=      0 D2E=      0 Chk=     46 Scr=      1
 Normal termination of Gaussian 16 at Fri Sep 16 22:02:35 2022.
