 Entering Gaussian System, Link 0=/shared/gaussian/g16.b01/AVX2/g16/g16
 Input=snap007.S0.com
 Output=snap007.S0.log
 Initial command:
 /shared/gaussian/g16.b01/AVX2/g16/l1.exe "/scratch/giacomo/Gauscr/Gau-16373.inp" -scrdir="/scratch/giacomo/Gauscr/"
 Entering Link 1 = /shared/gaussian/g16.b01/AVX2/g16/l1.exe PID=     16374.
  
 Copyright (c) 1988-2017, Gaussian, Inc.  All Rights Reserved.
  
 This is part of the Gaussian(R) 16 program.  It is based on
 the Gaussian(R) 09 system (copyright 2009, Gaussian, Inc.),
 the Gaussian(R) 03 system (copyright 2003, Gaussian, Inc.),
 the Gaussian(R) 98 system (copyright 1998, Gaussian, Inc.),
 the Gaussian(R) 94 system (copyright 1995, Gaussian, Inc.),
 the Gaussian 92(TM) system (copyright 1992, Gaussian, Inc.),
 the Gaussian 90(TM) system (copyright 1990, Gaussian, Inc.),
 the Gaussian 88(TM) system (copyright 1988, Gaussian, Inc.),
 the Gaussian 86(TM) system (copyright 1986, Carnegie Mellon
 University), and the Gaussian 82(TM) system (copyright 1983,
 Carnegie Mellon University). Gaussian is a federally registered
 trademark of Gaussian, Inc.
  
 This software contains proprietary and confidential information,
 including trade secrets, belonging to Gaussian, Inc.
  
 This software is provided under written license and may be
 used, copied, transmitted, or stored only in accord with that
 written license.
  
 The following legend is applicable only to US Government
 contracts under FAR:
  
                    RESTRICTED RIGHTS LEGEND
  
 Use, reproduction and disclosure by the US Government is
 subject to restrictions as set forth in subparagraphs (a)
 and (c) of the Commercial Computer Software - Restricted
 Rights clause in FAR 52.227-19.
  
 Gaussian, Inc.
 340 Quinnipiac St., Bldg. 40, Wallingford CT 06492
  
  
 ---------------------------------------------------------------
 Warning -- This program may not be used in any manner that
 competes with the business of Gaussian, Inc. or will provide
 assistance to any competitor of Gaussian, Inc.  The licensee
 of this program is prohibited from giving any competitor of
 Gaussian, Inc. access to this program.  By using this program,
 the user acknowledges that Gaussian, Inc. is engaged in the
 business of creating and licensing software in the field of
 computational chemistry and represents and warrants to the
 licensee that it is not a competitor of Gaussian, Inc. and that
 it will not use this program in any manner prohibited above.
 ---------------------------------------------------------------
  

 Cite this work as:
 Gaussian 16, Revision B.01,
 M. J. Frisch, G. W. Trucks, H. B. Schlegel, G. E. Scuseria, 
 M. A. Robb, J. R. Cheeseman, G. Scalmani, V. Barone, 
 G. A. Petersson, H. Nakatsuji, X. Li, M. Caricato, A. V. Marenich, 
 J. Bloino, B. G. Janesko, R. Gomperts, B. Mennucci, H. P. Hratchian, 
 J. V. Ortiz, A. F. Izmaylov, J. L. Sonnenberg, D. Williams-Young, 
 F. Ding, F. Lipparini, F. Egidi, J. Goings, B. Peng, A. Petrone, 
 T. Henderson, D. Ranasinghe, V. G. Zakrzewski, J. Gao, N. Rega, 
 G. Zheng, W. Liang, M. Hada, M. Ehara, K. Toyota, R. Fukuda, 
 J. Hasegawa, M. Ishida, T. Nakajima, Y. Honda, O. Kitao, H. Nakai, 
 T. Vreven, K. Throssell, J. A. Montgomery, Jr., J. E. Peralta, 
 F. Ogliaro, M. J. Bearpark, J. J. Heyd, E. N. Brothers, K. N. Kudin, 
 V. N. Staroverov, T. A. Keith, R. Kobayashi, J. Normand, 
 K. Raghavachari, A. P. Rendell, J. C. Burant, S. S. Iyengar, 
 J. Tomasi, M. Cossi, J. M. Millam, M. Klene, C. Adamo, R. Cammi, 
 J. W. Ochterski, R. L. Martin, K. Morokuma, O. Farkas, 
 J. B. Foresman, and D. J. Fox, Gaussian, Inc., Wallingford CT, 2016.
 
 ******************************************
 Gaussian 16:  ES64L-G16RevB.01 20-Dec-2017
                17-Sep-2022 
 ******************************************
 %Nproc=32
 Will use up to   32 processors via shared memory.
 %Mem=120Gb
 %chk=temp.chk
 -------------------------------------------
 #p cam-b3lyp/6-31+G(d,p) nosymm charge Freq
 -------------------------------------------
 1/10=4,18=10,28=-2,30=1,38=1,125=101/1,3;
 2/12=2,15=1,17=6,18=5,40=1/2;
 3/5=1,6=6,7=111,11=2,25=1,30=1,71=2,74=-40,140=1/1,2,3;
 4//1;
 5/5=2,38=5,98=1/2;
 8/6=4,10=90,11=11/1;
 11/6=1,8=1,9=11,15=111,16=1,31=1/1,2,10;
 10/6=1,31=1/2;
 6/7=2,8=2,9=2,10=2,28=1/1;
 7/8=1,10=1,16=-2,25=1,30=1/1,2,3,16;
 1/10=4,18=10,28=-2,30=1/3;
 99//99;
 Leave Link    1 at Sat Sep 17 01:24:14 2022, MaxMem= 16106127360 cpu:               1.9 elap:               0.1
 (Enter /shared/gaussian/g16.b01/AVX2/g16/l101.exe)
 ------------------------------------------
 Calculation for S0 with freq for abs spect
 ------------------------------------------
 Symbolic Z-matrix:
 Charge =  0 Multiplicity = 1
 C                     17.04118   15.28254   16.71289 
 C                     17.57267   17.58729   16.08051 
 C                     16.39438   18.04634   16.54704 
 C                     15.3967   17.15926   17.1666 
 N                     15.84346   15.8208   17.22692 
 H                     18.22602   18.20785   15.52521 
 H                     16.04487   19.03747   16.3178 
 O                     14.31028   17.39775   17.59106 
 O                     17.31533   14.12431   16.66511 
 N                     17.91628   16.23183   16.17379 
 H                     18.8515   15.93951   15.9994 
 H                     15.20125   15.11272   17.63657 
 O                     16.19299   17.80762   12.84351 
 H                     17.05145   18.20121   12.99958 
 H                     15.5787   18.53904   12.90599 
 O                     12.1574   15.8264   16.75971 
 H                     12.38138   15.28329   16.004 
 H                     12.91827   16.39437   16.881 
 O                     17.23949   16.02834   19.86155 
 H                     16.78545   16.30262   20.65833 
 H                     17.3594   15.08449   19.96649 
 O                     20.82725   16.34937   15.68071 
 H                     20.8469   16.12902   14.74942 
 H                     21.41365   17.10156   15.76177 
 O                     13.75976   15.40463   19.56608 
 H                     14.10258   16.2249   19.21131 
 H                     13.59495   15.59304   20.48995 
 O                     18.18189   20.38225   18.07596 
 H                     17.38186   20.55639   17.58012 
 H                     18.87928   20.40091   17.42058 
 O                     12.77698   19.6758   16.01488 
 H                     12.61155   20.54714   15.65485 
 H                     13.36277   19.82964   16.7561 
 O                     16.39209   11.73147   15.34524 
 H                     16.95523   12.38223   15.76431 
 H                     16.1875   12.10699   14.48887 
 O                     19.73995   20.5297   15.8207 
 H                     19.3176   20.30067   14.99281 
 H                     19.78867   21.48558   15.80888 
 O                     17.25152   13.39248   20.20235 
 H                     16.66952   12.92203   19.60557 
 H                     18.08258   12.92057   20.14881 
 O                     13.24646   14.03433   14.84091 
 H                     12.5937   13.40589   14.53241 
 H                     13.59208   13.64628   15.64477 
 O                     15.49375   17.66288   21.89399 
 H                     15.70585   18.3131   21.22433 
 H                     14.56709   17.80834   22.08475 
 O                     13.59307   13.48786   17.67378 
 H                     13.62014   14.04398   18.45238 
 H                     14.11614   12.72124   17.90815 
 O                     13.26299   16.36092   13.0865 
 H                     13.39368   15.48997   13.46148 
 H                     14.04328   16.8523   13.34325 
 O                     16.25551   13.21356   12.79576 
 H                     16.82775   13.94981   12.57963 
 H                     15.49682   13.32295   12.22248 
 O                     18.97356   17.64143   12.69341 
 H                     19.39158   18.25689   12.09118 
 H                     19.69642   17.12285   13.04664 
 O                     19.09069   17.8701   19.29129 
 H                     18.3637   17.24944   19.3413 
 H                     18.75824   18.58598   18.74978 
 O                     12.65786   19.16836   19.13756 
 H                     12.75284   18.7054   19.96993 
 H                     13.09454   18.60516   18.49853 
 O                     19.88938   12.79395   17.30509 
 H                     19.22356   13.46774   17.16752 
 H                     19.79241   12.54487   18.22422 
 O                     16.53821   19.89974   20.29061 
 H                     16.49135   20.78778   20.64475 
 H                     17.13114   19.97068   19.54255 
 
 ITRead=  0  0  0  0  0  0  0  0  0  0  0  0  0  0  0  0  0  0  0  0
 ITRead=  0  0  0  0  0  0  0  0  0  0  0  0  0  0  0  0  0  0  0  0
 ITRead=  0  0  0  0  0  0  0  0  0  0  0  0  0  0  0  0  0  0  0  0
 ITRead=  0  0  0  0  0  0  0  0  0  0  0  0
 MicOpt= -1 -1 -1 -1 -1 -1 -1 -1 -1 -1 -1 -1 -1 -1 -1 -1 -1 -1 -1 -1
 MicOpt= -1 -1 -1 -1 -1 -1 -1 -1 -1 -1 -1 -1 -1 -1 -1 -1 -1 -1 -1 -1
 MicOpt= -1 -1 -1 -1 -1 -1 -1 -1 -1 -1 -1 -1 -1 -1 -1 -1 -1 -1 -1 -1
 MicOpt= -1 -1 -1 -1 -1 -1 -1 -1 -1 -1 -1 -1
 NAtoms=     72 NQM=       72 NQMF=       0 NMMI=      0 NMMIF=      0
                NMic=       0 NMicF=      0.
                    Isotopes and Nuclear Properties:
 (Nuclear quadrupole moments (NQMom) in fm**2, nuclear magnetic moments (NMagM)
  in nuclear magnetons)

  Atom         1           2           3           4           5           6           7           8           9          10
 IAtWgt=          12          12          12          12          14           1           1          16          16          14
 AtmWgt=  12.0000000  12.0000000  12.0000000  12.0000000  14.0030740   1.0078250   1.0078250  15.9949146  15.9949146  14.0030740
 NucSpn=           0           0           0           0           2           1           1           0           0           2
 AtZEff=  -0.0000000  -0.0000000  -0.0000000  -0.0000000  -0.0000000  -0.0000000  -0.0000000  -0.0000000  -0.0000000  -0.0000000
 NQMom=    0.0000000   0.0000000   0.0000000   0.0000000   2.0440000   0.0000000   0.0000000   0.0000000   0.0000000   2.0440000
 NMagM=    0.0000000   0.0000000   0.0000000   0.0000000   0.4037610   2.7928460   2.7928460   0.0000000   0.0000000   0.4037610
 AtZNuc=   6.0000000   6.0000000   6.0000000   6.0000000   7.0000000   1.0000000   1.0000000   8.0000000   8.0000000   7.0000000

  Atom        11          12          13          14          15          16          17          18          19          20
 IAtWgt=           1           1          16           1           1          16           1           1          16           1
 AtmWgt=   1.0078250   1.0078250  15.9949146   1.0078250   1.0078250  15.9949146   1.0078250   1.0078250  15.9949146   1.0078250
 NucSpn=           1           1           0           1           1           0           1           1           0           1
 AtZEff=  -0.0000000  -0.0000000  -0.0000000  -0.0000000  -0.0000000  -0.0000000  -0.0000000  -0.0000000  -0.0000000  -0.0000000
 NQMom=    0.0000000   0.0000000   0.0000000   0.0000000   0.0000000   0.0000000   0.0000000   0.0000000   0.0000000   0.0000000
 NMagM=    2.7928460   2.7928460   0.0000000   2.7928460   2.7928460   0.0000000   2.7928460   2.7928460   0.0000000   2.7928460
 AtZNuc=   1.0000000   1.0000000   8.0000000   1.0000000   1.0000000   8.0000000   1.0000000   1.0000000   8.0000000   1.0000000

  Atom        21          22          23          24          25          26          27          28          29          30
 IAtWgt=           1          16           1           1          16           1           1          16           1           1
 AtmWgt=   1.0078250  15.9949146   1.0078250   1.0078250  15.9949146   1.0078250   1.0078250  15.9949146   1.0078250   1.0078250
 NucSpn=           1           0           1           1           0           1           1           0           1           1
 AtZEff=  -0.0000000  -0.0000000  -0.0000000  -0.0000000  -0.0000000  -0.0000000  -0.0000000  -0.0000000  -0.0000000  -0.0000000
 NQMom=    0.0000000   0.0000000   0.0000000   0.0000000   0.0000000   0.0000000   0.0000000   0.0000000   0.0000000   0.0000000
 NMagM=    2.7928460   0.0000000   2.7928460   2.7928460   0.0000000   2.7928460   2.7928460   0.0000000   2.7928460   2.7928460
 AtZNuc=   1.0000000   8.0000000   1.0000000   1.0000000   8.0000000   1.0000000   1.0000000   8.0000000   1.0000000   1.0000000

  Atom        31          32          33          34          35          36          37          38          39          40
 IAtWgt=          16           1           1          16           1           1          16           1           1          16
 AtmWgt=  15.9949146   1.0078250   1.0078250  15.9949146   1.0078250   1.0078250  15.9949146   1.0078250   1.0078250  15.9949146
 NucSpn=           0           1           1           0           1           1           0           1           1           0
 AtZEff=  -0.0000000  -0.0000000  -0.0000000  -0.0000000  -0.0000000  -0.0000000  -0.0000000  -0.0000000  -0.0000000  -0.0000000
 NQMom=    0.0000000   0.0000000   0.0000000   0.0000000   0.0000000   0.0000000   0.0000000   0.0000000   0.0000000   0.0000000
 NMagM=    0.0000000   2.7928460   2.7928460   0.0000000   2.7928460   2.7928460   0.0000000   2.7928460   2.7928460   0.0000000
 AtZNuc=   8.0000000   1.0000000   1.0000000   8.0000000   1.0000000   1.0000000   8.0000000   1.0000000   1.0000000   8.0000000

  Atom        41          42          43          44          45          46          47          48          49          50
 IAtWgt=           1           1          16           1           1          16           1           1          16           1
 AtmWgt=   1.0078250   1.0078250  15.9949146   1.0078250   1.0078250  15.9949146   1.0078250   1.0078250  15.9949146   1.0078250
 NucSpn=           1           1           0           1           1           0           1           1           0           1
 AtZEff=  -0.0000000  -0.0000000  -0.0000000  -0.0000000  -0.0000000  -0.0000000  -0.0000000  -0.0000000  -0.0000000  -0.0000000
 NQMom=    0.0000000   0.0000000   0.0000000   0.0000000   0.0000000   0.0000000   0.0000000   0.0000000   0.0000000   0.0000000
 NMagM=    2.7928460   2.7928460   0.0000000   2.7928460   2.7928460   0.0000000   2.7928460   2.7928460   0.0000000   2.7928460
 AtZNuc=   1.0000000   1.0000000   8.0000000   1.0000000   1.0000000   8.0000000   1.0000000   1.0000000   8.0000000   1.0000000

  Atom        51          52          53          54          55          56          57          58          59          60
 IAtWgt=           1          16           1           1          16           1           1          16           1           1
 AtmWgt=   1.0078250  15.9949146   1.0078250   1.0078250  15.9949146   1.0078250   1.0078250  15.9949146   1.0078250   1.0078250
 NucSpn=           1           0           1           1           0           1           1           0           1           1
 AtZEff=  -0.0000000  -0.0000000  -0.0000000  -0.0000000  -0.0000000  -0.0000000  -0.0000000  -0.0000000  -0.0000000  -0.0000000
 NQMom=    0.0000000   0.0000000   0.0000000   0.0000000   0.0000000   0.0000000   0.0000000   0.0000000   0.0000000   0.0000000
 NMagM=    2.7928460   0.0000000   2.7928460   2.7928460   0.0000000   2.7928460   2.7928460   0.0000000   2.7928460   2.7928460
 AtZNuc=   1.0000000   8.0000000   1.0000000   1.0000000   8.0000000   1.0000000   1.0000000   8.0000000   1.0000000   1.0000000

  Atom        61          62          63          64          65          66          67          68          69          70
 IAtWgt=          16           1           1          16           1           1          16           1           1          16
 AtmWgt=  15.9949146   1.0078250   1.0078250  15.9949146   1.0078250   1.0078250  15.9949146   1.0078250   1.0078250  15.9949146
 NucSpn=           0           1           1           0           1           1           0           1           1           0
 AtZEff=  -0.0000000  -0.0000000  -0.0000000  -0.0000000  -0.0000000  -0.0000000  -0.0000000  -0.0000000  -0.0000000  -0.0000000
 NQMom=    0.0000000   0.0000000   0.0000000   0.0000000   0.0000000   0.0000000   0.0000000   0.0000000   0.0000000   0.0000000
 NMagM=    0.0000000   2.7928460   2.7928460   0.0000000   2.7928460   2.7928460   0.0000000   2.7928460   2.7928460   0.0000000
 AtZNuc=   8.0000000   1.0000000   1.0000000   8.0000000   1.0000000   1.0000000   8.0000000   1.0000000   1.0000000   8.0000000

  Atom        71          72
 IAtWgt=           1           1
 AtmWgt=   1.0078250   1.0078250
 NucSpn=           1           1
 AtZEff=  -0.0000000  -0.0000000
 NQMom=    0.0000000   0.0000000
 NMagM=    2.7928460   2.7928460
 AtZNuc=   1.0000000   1.0000000
 Background charge distribution read from input stream:
 Point Charges:
 XYZ=   23.7614   17.8594   29.1177 Q=   -0.8340 A=    0.0000 R=    0.0000 C=    0.0000
 XYZ=   24.5239   18.1940   28.6456 Q=    0.4170 A=    0.0000 R=    0.0000 C=    0.0000
 XYZ=   23.0859   17.7646   28.4462 Q=    0.4170 A=    0.0000 R=    0.0000 C=    0.0000
 XYZ=   23.8764    8.7122   26.2442 Q=   -0.8340 A=    0.0000 R=    0.0000 C=    0.0000
 XYZ=   23.5317    8.2365   25.4885 Q=    0.4170 A=    0.0000 R=    0.0000 C=    0.0000
 XYZ=   24.7581    8.3605   26.3674 Q=    0.4170 A=    0.0000 R=    0.0000 C=    0.0000
 XYZ=   20.7132    5.3360   13.1559 Q=   -0.8340 A=    0.0000 R=    0.0000 C=    0.0000
 XYZ=   21.5902    4.9585   13.0873 Q=    0.4170 A=    0.0000 R=    0.0000 C=    0.0000
 XYZ=   20.7916    6.2000   12.7515 Q=    0.4170 A=    0.0000 R=    0.0000 C=    0.0000
 XYZ=   20.7051   17.7370    8.2458 Q=   -0.8340 A=    0.0000 R=    0.0000 C=    0.0000
 XYZ=   20.6566   16.7984    8.4275 Q=    0.4170 A=    0.0000 R=    0.0000 C=    0.0000
 XYZ=   21.6394   17.9411    8.2850 Q=    0.4170 A=    0.0000 R=    0.0000 C=    0.0000
 XYZ=   17.0489    6.3677   13.7348 Q=   -0.8340 A=    0.0000 R=    0.0000 C=    0.0000
 XYZ=   16.7366    5.4631   13.7579 Q=    0.4170 A=    0.0000 R=    0.0000 C=    0.0000
 XYZ=   17.2355    6.5337   12.8108 Q=    0.4170 A=    0.0000 R=    0.0000 C=    0.0000
 XYZ=   10.4812    3.2401   14.2629 Q=   -0.8340 A=    0.0000 R=    0.0000 C=    0.0000
 XYZ=   10.7022    3.9360   14.8819 Q=    0.4170 A=    0.0000 R=    0.0000 C=    0.0000
 XYZ=   11.0820    2.5270   14.4790 Q=    0.4170 A=    0.0000 R=    0.0000 C=    0.0000
 XYZ=   19.2036   23.2043   15.5920 Q=   -0.8340 A=    0.0000 R=    0.0000 C=    0.0000
 XYZ=   18.4220   22.9894   15.0830 Q=    0.4170 A=    0.0000 R=    0.0000 C=    0.0000
 XYZ=   19.2688   24.1579   15.5406 Q=    0.4170 A=    0.0000 R=    0.0000 C=    0.0000
 XYZ=   21.1313   25.5237   15.9329 Q=   -0.8340 A=    0.0000 R=    0.0000 C=    0.0000
 XYZ=   20.5186   25.8035   16.6130 Q=    0.4170 A=    0.0000 R=    0.0000 C=    0.0000
 XYZ=   21.9041   26.0727   16.0656 Q=    0.4170 A=    0.0000 R=    0.0000 C=    0.0000
 XYZ=   18.9766   19.6875    7.4271 Q=   -0.8340 A=    0.0000 R=    0.0000 C=    0.0000
 XYZ=   19.3441   19.0192    8.0055 Q=    0.4170 A=    0.0000 R=    0.0000 C=    0.0000
 XYZ=   18.0764   19.8003    7.7323 Q=    0.4170 A=    0.0000 R=    0.0000 C=    0.0000
 XYZ=   24.4764   16.8321    3.3155 Q=   -0.8340 A=    0.0000 R=    0.0000 C=    0.0000
 XYZ=   24.3516   17.0983    4.2265 Q=    0.4170 A=    0.0000 R=    0.0000 C=    0.0000
 XYZ=   23.7928   16.1803    3.1602 Q=    0.4170 A=    0.0000 R=    0.0000 C=    0.0000
 XYZ=   13.7288   24.0284   22.9536 Q=   -0.8340 A=    0.0000 R=    0.0000 C=    0.0000
 XYZ=   12.8510   23.8568   22.6128 Q=    0.4170 A=    0.0000 R=    0.0000 C=    0.0000
 XYZ=   13.5798   24.4866   23.7807 Q=    0.4170 A=    0.0000 R=    0.0000 C=    0.0000
 XYZ=   15.0620   27.4781    7.6725 Q=   -0.8340 A=    0.0000 R=    0.0000 C=    0.0000
 XYZ=   15.8957   27.0381    7.5064 Q=    0.4170 A=    0.0000 R=    0.0000 C=    0.0000
 XYZ=   15.2981   28.2579    8.1748 Q=    0.4170 A=    0.0000 R=    0.0000 C=    0.0000
 XYZ=   10.5745   25.4748   27.5253 Q=   -0.8340 A=    0.0000 R=    0.0000 C=    0.0000
 XYZ=    9.9196   26.1717   27.4841 Q=    0.4170 A=    0.0000 R=    0.0000 C=    0.0000
 XYZ=   10.0894   24.6769   27.3149 Q=    0.4170 A=    0.0000 R=    0.0000 C=    0.0000
 XYZ=   15.8943    3.9730   19.9540 Q=   -0.8340 A=    0.0000 R=    0.0000 C=    0.0000
 XYZ=   15.2272    4.0917   19.2778 Q=    0.4170 A=    0.0000 R=    0.0000 C=    0.0000
 XYZ=   15.7432    3.0886   20.2875 Q=    0.4170 A=    0.0000 R=    0.0000 C=    0.0000
 XYZ=   29.1261   21.5036   19.8297 Q=   -0.8340 A=    0.0000 R=    0.0000 C=    0.0000
 XYZ=   29.1659   20.8595   19.1228 Q=    0.4170 A=    0.0000 R=    0.0000 C=    0.0000
 XYZ=   28.2602   21.3800   20.2185 Q=    0.4170 A=    0.0000 R=    0.0000 C=    0.0000
 XYZ=   11.4396   20.8025   10.4938 Q=   -0.8340 A=    0.0000 R=    0.0000 C=    0.0000
 XYZ=   10.7423   21.3641   10.1551 Q=    0.4170 A=    0.0000 R=    0.0000 C=    0.0000
 XYZ=   11.0357   20.3319   11.2230 Q=    0.4170 A=    0.0000 R=    0.0000 C=    0.0000
 XYZ=   19.1558    3.1318   12.9383 Q=   -0.8340 A=    0.0000 R=    0.0000 C=    0.0000
 XYZ=   18.4133    3.0358   13.5348 Q=    0.4170 A=    0.0000 R=    0.0000 C=    0.0000
 XYZ=   19.6418    3.8827   13.2791 Q=    0.4170 A=    0.0000 R=    0.0000 C=    0.0000
 XYZ=   29.3706   20.4590   15.3968 Q=   -0.8340 A=    0.0000 R=    0.0000 C=    0.0000
 XYZ=   28.9421   20.4344   16.2524 Q=    0.4170 A=    0.0000 R=    0.0000 C=    0.0000
 XYZ=   29.8186   21.3047   15.3770 Q=    0.4170 A=    0.0000 R=    0.0000 C=    0.0000
 XYZ=   25.3773   16.2042   26.7889 Q=   -0.8340 A=    0.0000 R=    0.0000 C=    0.0000
 XYZ=   24.9341   15.4813   27.2331 Q=    0.4170 A=    0.0000 R=    0.0000 C=    0.0000
 XYZ=   24.7112   16.8882   26.7204 Q=    0.4170 A=    0.0000 R=    0.0000 C=    0.0000
 XYZ=    8.9280   10.1468   25.6702 Q=   -0.8340 A=    0.0000 R=    0.0000 C=    0.0000
 XYZ=    8.7835    9.6645   24.8561 Q=    0.4170 A=    0.0000 R=    0.0000 C=    0.0000
 XYZ=    9.4158    9.5390   26.2259 Q=    0.4170 A=    0.0000 R=    0.0000 C=    0.0000
 XYZ=   24.3693   13.2312   12.4024 Q=   -0.8340 A=    0.0000 R=    0.0000 C=    0.0000
 XYZ=   25.1179   13.2098   12.9985 Q=    0.4170 A=    0.0000 R=    0.0000 C=    0.0000
 XYZ=   24.7129   12.8978   11.5736 Q=    0.4170 A=    0.0000 R=    0.0000 C=    0.0000
 XYZ=    4.8004   14.7153   16.6744 Q=   -0.8340 A=    0.0000 R=    0.0000 C=    0.0000
 XYZ=    4.2527   14.0145   16.3206 Q=    0.4170 A=    0.0000 R=    0.0000 C=    0.0000
 XYZ=    5.2962   14.2995   17.3798 Q=    0.4170 A=    0.0000 R=    0.0000 C=    0.0000
 XYZ=   12.5999   29.2227   11.0904 Q=   -0.8340 A=    0.0000 R=    0.0000 C=    0.0000
 XYZ=   12.5024   29.9977   10.5371 Q=    0.4170 A=    0.0000 R=    0.0000 C=    0.0000
 XYZ=   12.7306   28.5024   10.4736 Q=    0.4170 A=    0.0000 R=    0.0000 C=    0.0000
 XYZ=    3.3809   16.0798   12.3999 Q=   -0.8340 A=    0.0000 R=    0.0000 C=    0.0000
 XYZ=    2.9136   16.8591   12.0989 Q=    0.4170 A=    0.0000 R=    0.0000 C=    0.0000
 XYZ=    3.2257   15.4279   11.7164 Q=    0.4170 A=    0.0000 R=    0.0000 C=    0.0000
 XYZ=   22.1044   30.0212   15.1029 Q=   -0.8340 A=    0.0000 R=    0.0000 C=    0.0000
 XYZ=   22.9714   30.3831   15.2862 Q=    0.4170 A=    0.0000 R=    0.0000 C=    0.0000
 XYZ=   22.1120   29.8448   14.1622 Q=    0.4170 A=    0.0000 R=    0.0000 C=    0.0000
 XYZ=   22.5454   24.5603    7.6384 Q=   -0.8340 A=    0.0000 R=    0.0000 C=    0.0000
 XYZ=   22.8410   24.0751    8.4087 Q=    0.4170 A=    0.0000 R=    0.0000 C=    0.0000
 XYZ=   22.5541   25.4769    7.9142 Q=    0.4170 A=    0.0000 R=    0.0000 C=    0.0000
 XYZ=   13.5640   15.0428    9.5663 Q=   -0.8340 A=    0.0000 R=    0.0000 C=    0.0000
 XYZ=   13.3405   15.7038   10.2216 Q=    0.4170 A=    0.0000 R=    0.0000 C=    0.0000
 XYZ=   14.1248   14.4228   10.0325 Q=    0.4170 A=    0.0000 R=    0.0000 C=    0.0000
 XYZ=   19.0395    4.3596   18.6209 Q=   -0.8340 A=    0.0000 R=    0.0000 C=    0.0000
 XYZ=   18.8483    3.5655   18.1219 Q=    0.4170 A=    0.0000 R=    0.0000 C=    0.0000
 XYZ=   18.4064    5.0023   18.3012 Q=    0.4170 A=    0.0000 R=    0.0000 C=    0.0000
 XYZ=    8.8778   21.2632   16.6826 Q=   -0.8340 A=    0.0000 R=    0.0000 C=    0.0000
 XYZ=    9.4239   21.1517   17.4608 Q=    0.4170 A=    0.0000 R=    0.0000 C=    0.0000
 XYZ=    8.8915   20.4069   16.2551 Q=    0.4170 A=    0.0000 R=    0.0000 C=    0.0000
 XYZ=    7.2922   21.3552   13.6286 Q=   -0.8340 A=    0.0000 R=    0.0000 C=    0.0000
 XYZ=    7.2591   22.2118   14.0545 Q=    0.4170 A=    0.0000 R=    0.0000 C=    0.0000
 XYZ=    6.4210   21.2423   13.2484 Q=    0.4170 A=    0.0000 R=    0.0000 C=    0.0000
 XYZ=   25.5839   24.4511   25.8161 Q=   -0.8340 A=    0.0000 R=    0.0000 C=    0.0000
 XYZ=   26.5252   24.5451   25.9617 Q=    0.4170 A=    0.0000 R=    0.0000 C=    0.0000
 XYZ=   25.4624   23.5214   25.6234 Q=    0.4170 A=    0.0000 R=    0.0000 C=    0.0000
 XYZ=   12.2744   17.3318   28.9003 Q=   -0.8340 A=    0.0000 R=    0.0000 C=    0.0000
 XYZ=   11.6776   16.9272   28.2706 Q=    0.4170 A=    0.0000 R=    0.0000 C=    0.0000
 XYZ=   12.3494   18.2408   28.6099 Q=    0.4170 A=    0.0000 R=    0.0000 C=    0.0000
 XYZ=   19.7799   12.2873   19.8973 Q=   -0.8340 A=    0.0000 R=    0.0000 C=    0.0000
 XYZ=   19.9375   12.7173   20.7379 Q=    0.4170 A=    0.0000 R=    0.0000 C=    0.0000
 XYZ=   19.8343   11.3518   20.0924 Q=    0.4170 A=    0.0000 R=    0.0000 C=    0.0000
 XYZ=   10.4648   24.6124    7.4650 Q=   -0.8340 A=    0.0000 R=    0.0000 C=    0.0000
 XYZ=   10.1596   25.4674    7.7686 Q=    0.4170 A=    0.0000 R=    0.0000 C=    0.0000
 XYZ=   10.1736   24.5631    6.5545 Q=    0.4170 A=    0.0000 R=    0.0000 C=    0.0000
 XYZ=    5.6115   13.4873   19.0718 Q=   -0.8340 A=    0.0000 R=    0.0000 C=    0.0000
 XYZ=    5.9938   14.0958   19.7042 Q=    0.4170 A=    0.0000 R=    0.0000 C=    0.0000
 XYZ=    4.6951   13.4096   19.3373 Q=    0.4170 A=    0.0000 R=    0.0000 C=    0.0000
 XYZ=   23.9523   11.2287   27.3007 Q=   -0.8340 A=    0.0000 R=    0.0000 C=    0.0000
 XYZ=   23.8335   10.5635   26.6228 Q=    0.4170 A=    0.0000 R=    0.0000 C=    0.0000
 XYZ=   24.1010   10.7292   28.1036 Q=    0.4170 A=    0.0000 R=    0.0000 C=    0.0000
 XYZ=   23.1618   15.4977   13.3027 Q=   -0.8340 A=    0.0000 R=    0.0000 C=    0.0000
 XYZ=   23.5660   14.7209   12.9162 Q=    0.4170 A=    0.0000 R=    0.0000 C=    0.0000
 XYZ=   23.6716   15.6644   14.0955 Q=    0.4170 A=    0.0000 R=    0.0000 C=    0.0000
 XYZ=   13.0034   19.6577    8.6624 Q=   -0.8340 A=    0.0000 R=    0.0000 C=    0.0000
 XYZ=   12.9480   18.7989    9.0815 Q=    0.4170 A=    0.0000 R=    0.0000 C=    0.0000
 XYZ=   12.5231   20.2423    9.2488 Q=    0.4170 A=    0.0000 R=    0.0000 C=    0.0000
 XYZ=    5.2269   17.6121    9.0256 Q=   -0.8340 A=    0.0000 R=    0.0000 C=    0.0000
 XYZ=    4.7017   16.8132    9.0729 Q=    0.4170 A=    0.0000 R=    0.0000 C=    0.0000
 XYZ=    4.6222   18.2779    8.6982 Q=    0.4170 A=    0.0000 R=    0.0000 C=    0.0000
 XYZ=   13.0982    9.6029   24.4988 Q=   -0.8340 A=    0.0000 R=    0.0000 C=    0.0000
 XYZ=   12.3201   10.1227   24.2975 Q=    0.4170 A=    0.0000 R=    0.0000 C=    0.0000
 XYZ=   12.9534    9.2901   25.3918 Q=    0.4170 A=    0.0000 R=    0.0000 C=    0.0000
 XYZ=   13.1540    9.8388   29.7915 Q=   -0.8340 A=    0.0000 R=    0.0000 C=    0.0000
 XYZ=   13.1806   10.5324   30.4506 Q=    0.4170 A=    0.0000 R=    0.0000 C=    0.0000
 XYZ=   12.9856   10.2966   28.9679 Q=    0.4170 A=    0.0000 R=    0.0000 C=    0.0000
 XYZ=   17.5763   16.1643    5.5937 Q=   -0.8340 A=    0.0000 R=    0.0000 C=    0.0000
 XYZ=   17.7204   15.3746    5.0723 Q=    0.4170 A=    0.0000 R=    0.0000 C=    0.0000
 XYZ=   17.0619   15.8659    6.3438 Q=    0.4170 A=    0.0000 R=    0.0000 C=    0.0000
 XYZ=    8.3743   21.3485    6.5300 Q=   -0.8340 A=    0.0000 R=    0.0000 C=    0.0000
 XYZ=    9.1415   21.9173    6.4658 Q=    0.4170 A=    0.0000 R=    0.0000 C=    0.0000
 XYZ=    8.1658   21.1236    5.6232 Q=    0.4170 A=    0.0000 R=    0.0000 C=    0.0000
 XYZ=   30.6261   12.8927   12.0786 Q=   -0.8340 A=    0.0000 R=    0.0000 C=    0.0000
 XYZ=   30.6207   13.3592   12.9144 Q=    0.4170 A=    0.0000 R=    0.0000 C=    0.0000
 XYZ=   31.5540   12.7717   11.8773 Q=    0.4170 A=    0.0000 R=    0.0000 C=    0.0000
 XYZ=   27.4586   25.9133   12.2132 Q=   -0.8340 A=    0.0000 R=    0.0000 C=    0.0000
 XYZ=   28.0385   26.2532   11.5317 Q=    0.4170 A=    0.0000 R=    0.0000 C=    0.0000
 XYZ=   26.5807   26.1706   11.9317 Q=    0.4170 A=    0.0000 R=    0.0000 C=    0.0000
 XYZ=    9.2206   29.5041   18.6275 Q=   -0.8340 A=    0.0000 R=    0.0000 C=    0.0000
 XYZ=   10.1650   29.3578   18.6803 Q=    0.4170 A=    0.0000 R=    0.0000 C=    0.0000
 XYZ=    9.0087   29.9933   19.4226 Q=    0.4170 A=    0.0000 R=    0.0000 C=    0.0000
 XYZ=   10.8945   11.6077   20.2294 Q=   -0.8340 A=    0.0000 R=    0.0000 C=    0.0000
 XYZ=   10.8503   11.9238   19.3270 Q=    0.4170 A=    0.0000 R=    0.0000 C=    0.0000
 XYZ=   10.0239   11.2487   20.4009 Q=    0.4170 A=    0.0000 R=    0.0000 C=    0.0000
 XYZ=   25.8343   20.1807   28.4276 Q=   -0.8340 A=    0.0000 R=    0.0000 C=    0.0000
 XYZ=   25.2259   20.0747   27.6963 Q=    0.4170 A=    0.0000 R=    0.0000 C=    0.0000
 XYZ=   26.5501   20.7061   28.0701 Q=    0.4170 A=    0.0000 R=    0.0000 C=    0.0000
 XYZ=   19.9096   17.4731    5.5607 Q=   -0.8340 A=    0.0000 R=    0.0000 C=    0.0000
 XYZ=   20.0178   17.9199    6.4002 Q=    0.4170 A=    0.0000 R=    0.0000 C=    0.0000
 XYZ=   19.1126   16.9535    5.6663 Q=    0.4170 A=    0.0000 R=    0.0000 C=    0.0000
 XYZ=    7.0143   11.3277   27.1233 Q=   -0.8340 A=    0.0000 R=    0.0000 C=    0.0000
 XYZ=    7.6144   12.0700   27.0517 Q=    0.4170 A=    0.0000 R=    0.0000 C=    0.0000
 XYZ=    7.3633   10.6773   26.5139 Q=    0.4170 A=    0.0000 R=    0.0000 C=    0.0000
 XYZ=    3.1376   19.1429   14.5839 Q=   -0.8340 A=    0.0000 R=    0.0000 C=    0.0000
 XYZ=    3.4165   18.2274   14.5705 Q=    0.4170 A=    0.0000 R=    0.0000 C=    0.0000
 XYZ=    3.5435   19.5060   15.3711 Q=    0.4170 A=    0.0000 R=    0.0000 C=    0.0000
 XYZ=   26.9644   16.9082    5.5214 Q=   -0.8340 A=    0.0000 R=    0.0000 C=    0.0000
 XYZ=   26.1495   16.5178    5.8373 Q=    0.4170 A=    0.0000 R=    0.0000 C=    0.0000
 XYZ=   26.8486   17.8485    5.6576 Q=    0.4170 A=    0.0000 R=    0.0000 C=    0.0000
 XYZ=    8.8190   26.5444   10.7470 Q=   -0.8340 A=    0.0000 R=    0.0000 C=    0.0000
 XYZ=    8.9425   27.0806    9.9638 Q=    0.4170 A=    0.0000 R=    0.0000 C=    0.0000
 XYZ=    9.7051   26.3905   11.0746 Q=    0.4170 A=    0.0000 R=    0.0000 C=    0.0000
 XYZ=    3.9942    9.6676   19.2366 Q=   -0.8340 A=    0.0000 R=    0.0000 C=    0.0000
 XYZ=    3.9534   10.2202   20.0171 Q=    0.4170 A=    0.0000 R=    0.0000 C=    0.0000
 XYZ=    3.0888    9.6178   18.9302 Q=    0.4170 A=    0.0000 R=    0.0000 C=    0.0000
 XYZ=    3.2452   14.4584   22.2457 Q=   -0.8340 A=    0.0000 R=    0.0000 C=    0.0000
 XYZ=    2.9704   14.0224   23.0523 Q=    0.4170 A=    0.0000 R=    0.0000 C=    0.0000
 XYZ=    3.0701   13.8188   21.5555 Q=    0.4170 A=    0.0000 R=    0.0000 C=    0.0000
 XYZ=    6.6847   15.9928   20.3539 Q=   -0.8340 A=    0.0000 R=    0.0000 C=    0.0000
 XYZ=    7.4302   15.5604   19.9374 Q=    0.4170 A=    0.0000 R=    0.0000 C=    0.0000
 XYZ=    6.6856   16.8775   19.9886 Q=    0.4170 A=    0.0000 R=    0.0000 C=    0.0000
 XYZ=   29.6558   15.7283   18.6010 Q=   -0.8340 A=    0.0000 R=    0.0000 C=    0.0000
 XYZ=   30.5818   15.9180   18.7516 Q=    0.4170 A=    0.0000 R=    0.0000 C=    0.0000
 XYZ=   29.5144   15.9403   17.6783 Q=    0.4170 A=    0.0000 R=    0.0000 C=    0.0000
 XYZ=   19.1457   13.8660   28.7255 Q=   -0.8340 A=    0.0000 R=    0.0000 C=    0.0000
 XYZ=   18.6087   13.3249   28.1466 Q=    0.4170 A=    0.0000 R=    0.0000 C=    0.0000
 XYZ=   19.8600   13.2901   28.9980 Q=    0.4170 A=    0.0000 R=    0.0000 C=    0.0000
 XYZ=   16.2857   28.1475   19.3647 Q=   -0.8340 A=    0.0000 R=    0.0000 C=    0.0000
 XYZ=   16.5154   27.9467   18.4574 Q=    0.4170 A=    0.0000 R=    0.0000 C=    0.0000
 XYZ=   17.0396   27.8507   19.8744 Q=    0.4170 A=    0.0000 R=    0.0000 C=    0.0000
 XYZ=   21.0168   21.3940   22.9198 Q=   -0.8340 A=    0.0000 R=    0.0000 C=    0.0000
 XYZ=   20.6876   20.7667   22.2762 Q=    0.4170 A=    0.0000 R=    0.0000 C=    0.0000
 XYZ=   20.2814   21.5342   23.5163 Q=    0.4170 A=    0.0000 R=    0.0000 C=    0.0000
 XYZ=   10.9478   22.3297    5.9484 Q=   -0.8340 A=    0.0000 R=    0.0000 C=    0.0000
 XYZ=   10.7688   22.8752    5.1825 Q=    0.4170 A=    0.0000 R=    0.0000 C=    0.0000
 XYZ=   11.0755   22.9536    6.6630 Q=    0.4170 A=    0.0000 R=    0.0000 C=    0.0000
 XYZ=   18.1419   26.4773    9.6675 Q=   -0.8340 A=    0.0000 R=    0.0000 C=    0.0000
 XYZ=   17.6465   26.2444    8.8823 Q=    0.4170 A=    0.0000 R=    0.0000 C=    0.0000
 XYZ=   17.5610   27.0631   10.1529 Q=    0.4170 A=    0.0000 R=    0.0000 C=    0.0000
 XYZ=    7.3087   14.5876    9.4711 Q=   -0.8340 A=    0.0000 R=    0.0000 C=    0.0000
 XYZ=    7.7610   14.9628   10.2267 Q=    0.4170 A=    0.0000 R=    0.0000 C=    0.0000
 XYZ=    7.1743   15.3282    8.8798 Q=    0.4170 A=    0.0000 R=    0.0000 C=    0.0000
 XYZ=   20.7196    8.1321   12.0038 Q=   -0.8340 A=    0.0000 R=    0.0000 C=    0.0000
 XYZ=   21.3277    8.7661   11.6237 Q=    0.4170 A=    0.0000 R=    0.0000 C=    0.0000
 XYZ=   20.1235    8.6599   12.5350 Q=    0.4170 A=    0.0000 R=    0.0000 C=    0.0000
 XYZ=   19.9416   13.0184   22.5510 Q=   -0.8340 A=    0.0000 R=    0.0000 C=    0.0000
 XYZ=   19.9947   13.3195   23.4581 Q=    0.4170 A=    0.0000 R=    0.0000 C=    0.0000
 XYZ=   19.4817   12.1806   22.6028 Q=    0.4170 A=    0.0000 R=    0.0000 C=    0.0000
 XYZ=   21.3792   10.2489   16.9469 Q=   -0.8340 A=    0.0000 R=    0.0000 C=    0.0000
 XYZ=   21.0408   11.1348   17.0766 Q=    0.4170 A=    0.0000 R=    0.0000 C=    0.0000
 XYZ=   22.3243   10.3321   17.0735 Q=    0.4170 A=    0.0000 R=    0.0000 C=    0.0000
 XYZ=   10.5022   19.2477   22.0129 Q=   -0.8340 A=    0.0000 R=    0.0000 C=    0.0000
 XYZ=    9.9872   20.0476   22.1188 Q=    0.4170 A=    0.0000 R=    0.0000 C=    0.0000
 XYZ=    9.8637   18.5390   22.0921 Q=    0.4170 A=    0.0000 R=    0.0000 C=    0.0000
 XYZ=    7.5617   17.0637    7.9164 Q=   -0.8340 A=    0.0000 R=    0.0000 C=    0.0000
 XYZ=    6.7244   17.4460    8.1789 Q=    0.4170 A=    0.0000 R=    0.0000 C=    0.0000
 XYZ=    8.2149   17.7106    8.1831 Q=    0.4170 A=    0.0000 R=    0.0000 C=    0.0000
 XYZ=    6.7169    9.3287   16.4805 Q=   -0.8340 A=    0.0000 R=    0.0000 C=    0.0000
 XYZ=    7.4225    9.9658   16.5925 Q=    0.4170 A=    0.0000 R=    0.0000 C=    0.0000
 XYZ=    5.9323    9.8605   16.3473 Q=    0.4170 A=    0.0000 R=    0.0000 C=    0.0000
 XYZ=   11.0259   11.2657   23.1278 Q=   -0.8340 A=    0.0000 R=    0.0000 C=    0.0000
 XYZ=   11.1248   10.8250   22.2838 Q=    0.4170 A=    0.0000 R=    0.0000 C=    0.0000
 XYZ=   10.0920   11.4674   23.1852 Q=    0.4170 A=    0.0000 R=    0.0000 C=    0.0000
 XYZ=   22.9245   26.7834   13.2766 Q=   -0.8340 A=    0.0000 R=    0.0000 C=    0.0000
 XYZ=   23.4478   27.4121   12.7794 Q=    0.4170 A=    0.0000 R=    0.0000 C=    0.0000
 XYZ=   22.1097   27.2477   13.4681 Q=    0.4170 A=    0.0000 R=    0.0000 C=    0.0000
 XYZ=   12.2605   21.3764   25.3419 Q=   -0.8340 A=    0.0000 R=    0.0000 C=    0.0000
 XYZ=   13.0202   21.8695   25.0322 Q=    0.4170 A=    0.0000 R=    0.0000 C=    0.0000
 XYZ=   11.5075   21.9057   25.0791 Q=    0.4170 A=    0.0000 R=    0.0000 C=    0.0000
 XYZ=    5.5852   16.3566   24.4811 Q=   -0.8340 A=    0.0000 R=    0.0000 C=    0.0000
 XYZ=    6.3286   16.9519   24.3858 Q=    0.4170 A=    0.0000 R=    0.0000 C=    0.0000
 XYZ=    5.2344   16.2668   23.5950 Q=    0.4170 A=    0.0000 R=    0.0000 C=    0.0000
 XYZ=   15.1378   24.6549   12.6461 Q=   -0.8340 A=    0.0000 R=    0.0000 C=    0.0000
 XYZ=   14.6541   23.8315   12.5799 Q=    0.4170 A=    0.0000 R=    0.0000 C=    0.0000
 XYZ=   14.4830   25.2964   12.9218 Q=    0.4170 A=    0.0000 R=    0.0000 C=    0.0000
 XYZ=   20.2417   12.5306   14.4679 Q=   -0.8340 A=    0.0000 R=    0.0000 C=    0.0000
 XYZ=   20.1785   12.6082   15.4198 Q=    0.4170 A=    0.0000 R=    0.0000 C=    0.0000
 XYZ=   21.0909   12.1154   14.3168 Q=    0.4170 A=    0.0000 R=    0.0000 C=    0.0000
 XYZ=   18.0236   10.1332   17.7103 Q=   -0.8340 A=    0.0000 R=    0.0000 C=    0.0000
 XYZ=   18.9572   10.3441   17.7004 Q=    0.4170 A=    0.0000 R=    0.0000 C=    0.0000
 XYZ=   17.9101    9.5125   16.9905 Q=    0.4170 A=    0.0000 R=    0.0000 C=    0.0000
 XYZ=   23.5959   24.5132   22.5742 Q=   -0.8340 A=    0.0000 R=    0.0000 C=    0.0000
 XYZ=   22.7008   24.5848   22.2427 Q=    0.4170 A=    0.0000 R=    0.0000 C=    0.0000
 XYZ=   24.0695   24.0443   21.8872 Q=    0.4170 A=    0.0000 R=    0.0000 C=    0.0000
 XYZ=    6.6520   17.3747   13.9872 Q=   -0.8340 A=    0.0000 R=    0.0000 C=    0.0000
 XYZ=    6.6367   17.7694   13.1153 Q=    0.4170 A=    0.0000 R=    0.0000 C=    0.0000
 XYZ=    5.7459   17.4289   14.2911 Q=    0.4170 A=    0.0000 R=    0.0000 C=    0.0000
 XYZ=   17.6700   19.1285   30.0652 Q=   -0.8340 A=    0.0000 R=    0.0000 C=    0.0000
 XYZ=   17.8695   18.5876   30.8293 Q=    0.4170 A=    0.0000 R=    0.0000 C=    0.0000
 XYZ=   16.8959   18.7202   29.6775 Q=    0.4170 A=    0.0000 R=    0.0000 C=    0.0000
 XYZ=   15.4817    6.5431   25.0303 Q=   -0.8340 A=    0.0000 R=    0.0000 C=    0.0000
 XYZ=   15.1589    6.7189   24.1465 Q=    0.4170 A=    0.0000 R=    0.0000 C=    0.0000
 XYZ=   15.4819    5.5885   25.1003 Q=    0.4170 A=    0.0000 R=    0.0000 C=    0.0000
 XYZ=   21.4756    4.2358   17.5093 Q=   -0.8340 A=    0.0000 R=    0.0000 C=    0.0000
 XYZ=   20.7152    4.4118   18.0634 Q=    0.4170 A=    0.0000 R=    0.0000 C=    0.0000
 XYZ=   21.8021    5.1024   17.2675 Q=    0.4170 A=    0.0000 R=    0.0000 C=    0.0000
 XYZ=   18.1357   30.3779   18.0935 Q=   -0.8340 A=    0.0000 R=    0.0000 C=    0.0000
 XYZ=   18.0142   30.5233   19.0318 Q=    0.4170 A=    0.0000 R=    0.0000 C=    0.0000
 XYZ=   18.4623   31.2142   17.7615 Q=    0.4170 A=    0.0000 R=    0.0000 C=    0.0000
 XYZ=   21.3698    3.9972   10.1260 Q=   -0.8340 A=    0.0000 R=    0.0000 C=    0.0000
 XYZ=   21.7299    3.3321    9.5394 Q=    0.4170 A=    0.0000 R=    0.0000 C=    0.0000
 XYZ=   22.1200    4.2946   10.6409 Q=    0.4170 A=    0.0000 R=    0.0000 C=    0.0000
 XYZ=   26.8941   18.1647   23.8025 Q=   -0.8340 A=    0.0000 R=    0.0000 C=    0.0000
 XYZ=   26.6675   19.0866   23.9253 Q=    0.4170 A=    0.0000 R=    0.0000 C=    0.0000
 XYZ=   26.1988   17.8193   23.2426 Q=    0.4170 A=    0.0000 R=    0.0000 C=    0.0000
 XYZ=   17.3810    7.2838   27.0678 Q=   -0.8340 A=    0.0000 R=    0.0000 C=    0.0000
 XYZ=   16.7681    6.9968   26.3909 Q=    0.4170 A=    0.0000 R=    0.0000 C=    0.0000
 XYZ=   16.9728    8.0622   27.4469 Q=    0.4170 A=    0.0000 R=    0.0000 C=    0.0000
 XYZ=   20.5506   16.6146   22.7056 Q=   -0.8340 A=    0.0000 R=    0.0000 C=    0.0000
 XYZ=   20.9445   16.4427   23.5609 Q=    0.4170 A=    0.0000 R=    0.0000 C=    0.0000
 XYZ=   19.6318   16.3677   22.8105 Q=    0.4170 A=    0.0000 R=    0.0000 C=    0.0000
 XYZ=   20.5925   19.2506   10.9121 Q=   -0.8340 A=    0.0000 R=    0.0000 C=    0.0000
 XYZ=   20.9733   19.1742   10.0372 Q=    0.4170 A=    0.0000 R=    0.0000 C=    0.0000
 XYZ=   21.2846   18.9519   11.5020 Q=    0.4170 A=    0.0000 R=    0.0000 C=    0.0000
 XYZ=   21.9321    5.1583   22.6097 Q=   -0.8340 A=    0.0000 R=    0.0000 C=    0.0000
 XYZ=   22.8485    4.9057   22.7216 Q=    0.4170 A=    0.0000 R=    0.0000 C=    0.0000
 XYZ=   21.7625    5.7699   23.3263 Q=    0.4170 A=    0.0000 R=    0.0000 C=    0.0000
 XYZ=   10.8028   12.2286   26.7450 Q=   -0.8340 A=    0.0000 R=    0.0000 C=    0.0000
 XYZ=   10.2962   11.6431   26.1822 Q=    0.4170 A=    0.0000 R=    0.0000 C=    0.0000
 XYZ=   11.5335   12.5152   26.1971 Q=    0.4170 A=    0.0000 R=    0.0000 C=    0.0000
 XYZ=   26.9661   13.9186   13.6291 Q=   -0.8340 A=    0.0000 R=    0.0000 C=    0.0000
 XYZ=   27.3091   13.7005   14.4958 Q=    0.4170 A=    0.0000 R=    0.0000 C=    0.0000
 XYZ=   27.2727   14.8108   13.4673 Q=    0.4170 A=    0.0000 R=    0.0000 C=    0.0000
 XYZ=   24.3592   10.3990    9.0537 Q=   -0.8340 A=    0.0000 R=    0.0000 C=    0.0000
 XYZ=   25.0457   11.0048    9.3327 Q=    0.4170 A=    0.0000 R=    0.0000 C=    0.0000
 XYZ=   24.7196    9.9686    8.2784 Q=    0.4170 A=    0.0000 R=    0.0000 C=    0.0000
 XYZ=   13.5883   11.8915   20.8471 Q=   -0.8340 A=    0.0000 R=    0.0000 C=    0.0000
 XYZ=   12.6454   12.0457   20.9044 Q=    0.4170 A=    0.0000 R=    0.0000 C=    0.0000
 XYZ=   13.6675   11.0583   20.3826 Q=    0.4170 A=    0.0000 R=    0.0000 C=    0.0000
 XYZ=    3.5414   20.0267   17.6558 Q=   -0.8340 A=    0.0000 R=    0.0000 C=    0.0000
 XYZ=    3.7624   20.3948   18.5113 Q=    0.4170 A=    0.0000 R=    0.0000 C=    0.0000
 XYZ=    4.2588   20.3004   17.0841 Q=    0.4170 A=    0.0000 R=    0.0000 C=    0.0000
 XYZ=    8.7330   13.9950   26.3921 Q=   -0.8340 A=    0.0000 R=    0.0000 C=    0.0000
 XYZ=    8.5731   14.4107   27.2393 Q=    0.4170 A=    0.0000 R=    0.0000 C=    0.0000
 XYZ=    9.4536   13.3865   26.5556 Q=    0.4170 A=    0.0000 R=    0.0000 C=    0.0000
 XYZ=   23.4546   10.6921    6.1958 Q=   -0.8340 A=    0.0000 R=    0.0000 C=    0.0000
 XYZ=   23.9014   10.3888    5.4056 Q=    0.4170 A=    0.0000 R=    0.0000 C=    0.0000
 XYZ=   23.7552   11.5936    6.3105 Q=    0.4170 A=    0.0000 R=    0.0000 C=    0.0000
 XYZ=   18.2425   23.0830   23.2478 Q=   -0.8340 A=    0.0000 R=    0.0000 C=    0.0000
 XYZ=   18.4252   23.1924   22.3146 Q=    0.4170 A=    0.0000 R=    0.0000 C=    0.0000
 XYZ=   18.0816   22.1453   23.3525 Q=    0.4170 A=    0.0000 R=    0.0000 C=    0.0000
 XYZ=    3.8993   16.6825   14.8991 Q=   -0.8340 A=    0.0000 R=    0.0000 C=    0.0000
 XYZ=    4.0711   16.3184   14.0307 Q=    0.4170 A=    0.0000 R=    0.0000 C=    0.0000
 XYZ=    3.8666   15.9200   15.4768 Q=    0.4170 A=    0.0000 R=    0.0000 C=    0.0000
 XYZ=    9.7443    6.7685   14.9629 Q=   -0.8340 A=    0.0000 R=    0.0000 C=    0.0000
 XYZ=    9.3455    6.7380   15.8325 Q=    0.4170 A=    0.0000 R=    0.0000 C=    0.0000
 XYZ=    9.0394    7.0620   14.3857 Q=    0.4170 A=    0.0000 R=    0.0000 C=    0.0000
 XYZ=   22.7360    7.4248   21.2182 Q=   -0.8340 A=    0.0000 R=    0.0000 C=    0.0000
 XYZ=   22.2554    6.7182   21.6495 Q=    0.4170 A=    0.0000 R=    0.0000 C=    0.0000
 XYZ=   22.9331    8.0445   21.9206 Q=    0.4170 A=    0.0000 R=    0.0000 C=    0.0000
 XYZ=   26.7868   12.5365   16.2295 Q=   -0.8340 A=    0.0000 R=    0.0000 C=    0.0000
 XYZ=   26.6328   11.7095   16.6863 Q=    0.4170 A=    0.0000 R=    0.0000 C=    0.0000
 XYZ=   27.6747   12.7888   16.4826 Q=    0.4170 A=    0.0000 R=    0.0000 C=    0.0000
 XYZ=   29.7003   17.7075   21.0494 Q=   -0.8340 A=    0.0000 R=    0.0000 C=    0.0000
 XYZ=   29.5055   16.8629   20.6432 Q=    0.4170 A=    0.0000 R=    0.0000 C=    0.0000
 XYZ=   30.6563   17.7451   21.0783 Q=    0.4170 A=    0.0000 R=    0.0000 C=    0.0000
 XYZ=   27.6765   23.6143   13.9054 Q=   -0.8340 A=    0.0000 R=    0.0000 C=    0.0000
 XYZ=   27.4924   23.8359   14.8182 Q=    0.4170 A=    0.0000 R=    0.0000 C=    0.0000
 XYZ=   27.2316   24.2939   13.3990 Q=    0.4170 A=    0.0000 R=    0.0000 C=    0.0000
 XYZ=   14.2323   22.5142   28.0630 Q=   -0.8340 A=    0.0000 R=    0.0000 C=    0.0000
 XYZ=   15.0413   22.6647   27.5740 Q=    0.4170 A=    0.0000 R=    0.0000 C=    0.0000
 XYZ=   13.8009   21.7971   27.5985 Q=    0.4170 A=    0.0000 R=    0.0000 C=    0.0000
 XYZ=   18.6552   22.8670   20.2768 Q=   -0.8340 A=    0.0000 R=    0.0000 C=    0.0000
 XYZ=   18.6982   22.1948   19.5966 Q=    0.4170 A=    0.0000 R=    0.0000 C=    0.0000
 XYZ=   18.0094   23.4949   19.9532 Q=    0.4170 A=    0.0000 R=    0.0000 C=    0.0000
 XYZ=   18.7653   27.8067   17.8227 Q=   -0.8340 A=    0.0000 R=    0.0000 C=    0.0000
 XYZ=   18.7555   28.7637   17.8405 Q=    0.4170 A=    0.0000 R=    0.0000 C=    0.0000
 XYZ=   19.6248   27.5690   18.1704 Q=    0.4170 A=    0.0000 R=    0.0000 C=    0.0000
 XYZ=   18.4989   28.8147    7.8485 Q=   -0.8340 A=    0.0000 R=    0.0000 C=    0.0000
 XYZ=   18.3699   27.8701    7.9346 Q=    0.4170 A=    0.0000 R=    0.0000 C=    0.0000
 XYZ=   18.5337   28.9670    6.9041 Q=    0.4170 A=    0.0000 R=    0.0000 C=    0.0000
 XYZ=   20.4234   24.3341    9.8241 Q=   -0.8340 A=    0.0000 R=    0.0000 C=    0.0000
 XYZ=   19.7329   24.9676   10.0195 Q=    0.4170 A=    0.0000 R=    0.0000 C=    0.0000
 XYZ=   20.6126   24.4643    8.8949 Q=    0.4170 A=    0.0000 R=    0.0000 C=    0.0000
 XYZ=   26.8732   10.9811   23.8330 Q=   -0.8340 A=    0.0000 R=    0.0000 C=    0.0000
 XYZ=   27.7704   10.6823   23.6846 Q=    0.4170 A=    0.0000 R=    0.0000 C=    0.0000
 XYZ=   26.7124   10.8064   24.7603 Q=    0.4170 A=    0.0000 R=    0.0000 C=    0.0000
 XYZ=   14.3556   22.2248   13.8605 Q=   -0.8340 A=    0.0000 R=    0.0000 C=    0.0000
 XYZ=   13.4647   22.5746   13.8761 Q=    0.4170 A=    0.0000 R=    0.0000 C=    0.0000
 XYZ=   14.7908   22.6433   14.6032 Q=    0.4170 A=    0.0000 R=    0.0000 C=    0.0000
 XYZ=   27.3283   20.8946   17.1813 Q=   -0.8340 A=    0.0000 R=    0.0000 C=    0.0000
 XYZ=   26.5494   20.7418   16.6462 Q=    0.4170 A=    0.0000 R=    0.0000 C=    0.0000
 XYZ=   27.4215   20.0973   17.7026 Q=    0.4170 A=    0.0000 R=    0.0000 C=    0.0000
 XYZ=    5.0452   11.6932   25.2985 Q=   -0.8340 A=    0.0000 R=    0.0000 C=    0.0000
 XYZ=    5.5463   12.3355   24.7960 Q=    0.4170 A=    0.0000 R=    0.0000 C=    0.0000
 XYZ=    5.5014   11.6365   26.1381 Q=    0.4170 A=    0.0000 R=    0.0000 C=    0.0000
 XYZ=    6.4213    5.5239   20.5187 Q=   -0.8340 A=    0.0000 R=    0.0000 C=    0.0000
 XYZ=    6.2552    6.0625   19.7450 Q=    0.4170 A=    0.0000 R=    0.0000 C=    0.0000
 XYZ=    7.3084    5.7603   20.7897 Q=    0.4170 A=    0.0000 R=    0.0000 C=    0.0000
 XYZ=   16.8345   24.6687   19.0940 Q=   -0.8340 A=    0.0000 R=    0.0000 C=    0.0000
 XYZ=   16.4334   25.0159   18.2973 Q=    0.4170 A=    0.0000 R=    0.0000 C=    0.0000
 XYZ=   16.1441   24.7251   19.7545 Q=    0.4170 A=    0.0000 R=    0.0000 C=    0.0000
 XYZ=   19.8183   19.8071   28.4647 Q=   -0.8340 A=    0.0000 R=    0.0000 C=    0.0000
 XYZ=   19.0292   19.6613   28.9865 Q=    0.4170 A=    0.0000 R=    0.0000 C=    0.0000
 XYZ=   20.0668   20.7120   28.6531 Q=    0.4170 A=    0.0000 R=    0.0000 C=    0.0000
 XYZ=   17.6787   22.0283   30.6314 Q=   -0.8340 A=    0.0000 R=    0.0000 C=    0.0000
 XYZ=   16.9093   22.5410   30.8793 Q=    0.4170 A=    0.0000 R=    0.0000 C=    0.0000
 XYZ=   17.3690   21.1227   30.6166 Q=    0.4170 A=    0.0000 R=    0.0000 C=    0.0000
 XYZ=    9.9267   14.3330   15.4445 Q=   -0.8340 A=    0.0000 R=    0.0000 C=    0.0000
 XYZ=   10.1725   15.1254   15.9219 Q=    0.4170 A=    0.0000 R=    0.0000 C=    0.0000
 XYZ=    9.3766   14.6462   14.7265 Q=    0.4170 A=    0.0000 R=    0.0000 C=    0.0000
 XYZ=   21.0742    3.2003   15.0002 Q=   -0.8340 A=    0.0000 R=    0.0000 C=    0.0000
 XYZ=   21.1029    4.0337   14.5303 Q=    0.4170 A=    0.0000 R=    0.0000 C=    0.0000
 XYZ=   21.1391    3.4432   15.9238 Q=    0.4170 A=    0.0000 R=    0.0000 C=    0.0000
 XYZ=   20.2737   24.9336   24.4669 Q=   -0.8340 A=    0.0000 R=    0.0000 C=    0.0000
 XYZ=   19.4797   24.3996   24.4889 Q=    0.4170 A=    0.0000 R=    0.0000 C=    0.0000
 XYZ=   20.4030   25.2090   25.3744 Q=    0.4170 A=    0.0000 R=    0.0000 C=    0.0000
 XYZ=   21.1033    6.7331   24.4584 Q=   -0.8340 A=    0.0000 R=    0.0000 C=    0.0000
 XYZ=   21.1610    7.6858   24.3863 Q=    0.4170 A=    0.0000 R=    0.0000 C=    0.0000
 XYZ=   20.1710    6.5408   24.3577 Q=    0.4170 A=    0.0000 R=    0.0000 C=    0.0000
 XYZ=   12.2493   25.5114   18.2194 Q=   -0.8340 A=    0.0000 R=    0.0000 C=    0.0000
 XYZ=   11.3148   25.5461   18.0149 Q=    0.4170 A=    0.0000 R=    0.0000 C=    0.0000
 XYZ=   12.3009   24.9871   19.0185 Q=    0.4170 A=    0.0000 R=    0.0000 C=    0.0000
 XYZ=   18.6356    4.3745    9.0017 Q=   -0.8340 A=    0.0000 R=    0.0000 C=    0.0000
 XYZ=   19.2909    3.7477    9.3085 Q=    0.4170 A=    0.0000 R=    0.0000 C=    0.0000
 XYZ=   18.8707    5.1970    9.4311 Q=    0.4170 A=    0.0000 R=    0.0000 C=    0.0000
 XYZ=   13.5029   27.9266   20.1911 Q=   -0.8340 A=    0.0000 R=    0.0000 C=    0.0000
 XYZ=   13.0726   27.3387   19.5703 Q=    0.4170 A=    0.0000 R=    0.0000 C=    0.0000
 XYZ=   14.3722   28.0745   19.8186 Q=    0.4170 A=    0.0000 R=    0.0000 C=    0.0000
 XYZ=   18.1303    7.2447   19.2602 Q=   -0.8340 A=    0.0000 R=    0.0000 C=    0.0000
 XYZ=   17.4854    7.6890   18.7097 Q=    0.4170 A=    0.0000 R=    0.0000 C=    0.0000
 XYZ=   18.9713    7.4312   18.8429 Q=    0.4170 A=    0.0000 R=    0.0000 C=    0.0000
 XYZ=   11.4167   13.8276   23.7075 Q=   -0.8340 A=    0.0000 R=    0.0000 C=    0.0000
 XYZ=   11.1799   12.9313   23.4691 Q=    0.4170 A=    0.0000 R=    0.0000 C=    0.0000
 XYZ=   12.0314   13.7281   24.4345 Q=    0.4170 A=    0.0000 R=    0.0000 C=    0.0000
 XYZ=   18.1157   13.7296   31.3370 Q=   -0.8340 A=    0.0000 R=    0.0000 C=    0.0000
 XYZ=   18.9978   14.0074   31.5842 Q=    0.4170 A=    0.0000 R=    0.0000 C=    0.0000
 XYZ=   18.1245   13.7267   30.3798 Q=    0.4170 A=    0.0000 R=    0.0000 C=    0.0000
 XYZ=   13.8528    9.2940   19.9297 Q=   -0.8340 A=    0.0000 R=    0.0000 C=    0.0000
 XYZ=   13.4132    8.8604   20.6611 Q=    0.4170 A=    0.0000 R=    0.0000 C=    0.0000
 XYZ=   13.2910    9.1196   19.1746 Q=    0.4170 A=    0.0000 R=    0.0000 C=    0.0000
 XYZ=   27.1201   16.3158   16.5144 Q=   -0.8340 A=    0.0000 R=    0.0000 C=    0.0000
 XYZ=   26.8290   17.0775   17.0157 Q=    0.4170 A=    0.0000 R=    0.0000 C=    0.0000
 XYZ=   27.5642   16.6861   15.7515 Q=    0.4170 A=    0.0000 R=    0.0000 C=    0.0000
 XYZ=    3.3093   10.6113   13.6908 Q=   -0.8340 A=    0.0000 R=    0.0000 C=    0.0000
 XYZ=    3.4518    9.7543   14.0927 Q=    0.4170 A=    0.0000 R=    0.0000 C=    0.0000
 XYZ=    3.2529   10.4300   12.7526 Q=    0.4170 A=    0.0000 R=    0.0000 C=    0.0000
 XYZ=   11.1460   18.1853   14.1667 Q=   -0.8340 A=    0.0000 R=    0.0000 C=    0.0000
 XYZ=   11.8028   18.5816   14.7391 Q=    0.4170 A=    0.0000 R=    0.0000 C=    0.0000
 XYZ=   11.6289   17.5270   13.6670 Q=    0.4170 A=    0.0000 R=    0.0000 C=    0.0000
 XYZ=   26.5099    5.2157   16.4082 Q=   -0.8340 A=    0.0000 R=    0.0000 C=    0.0000
 XYZ=   25.8534    5.8818   16.6123 Q=    0.4170 A=    0.0000 R=    0.0000 C=    0.0000
 XYZ=   27.3270    5.7051   16.3137 Q=    0.4170 A=    0.0000 R=    0.0000 C=    0.0000
 XYZ=   27.9738   15.5238   23.7439 Q=   -0.8340 A=    0.0000 R=    0.0000 C=    0.0000
 XYZ=   27.3453   15.9279   24.3422 Q=    0.4170 A=    0.0000 R=    0.0000 C=    0.0000
 XYZ=   28.1276   16.1886   23.0725 Q=    0.4170 A=    0.0000 R=    0.0000 C=    0.0000
 XYZ=   10.4886   13.4020    4.6862 Q=   -0.8340 A=    0.0000 R=    0.0000 C=    0.0000
 XYZ=   10.1704   13.4827    5.5854 Q=    0.4170 A=    0.0000 R=    0.0000 C=    0.0000
 XYZ=   10.6137   12.4615    4.5594 Q=    0.4170 A=    0.0000 R=    0.0000 C=    0.0000
 XYZ=   27.1515   19.5156    6.9785 Q=   -0.8340 A=    0.0000 R=    0.0000 C=    0.0000
 XYZ=   26.2308   19.5801    6.7250 Q=    0.4170 A=    0.0000 R=    0.0000 C=    0.0000
 XYZ=   27.4693   20.4183    6.9600 Q=    0.4170 A=    0.0000 R=    0.0000 C=    0.0000
 XYZ=   21.9565   18.6847   15.9317 Q=   -0.8340 A=    0.0000 R=    0.0000 C=    0.0000
 XYZ=   21.2554   19.3348   15.9753 Q=    0.4170 A=    0.0000 R=    0.0000 C=    0.0000
 XYZ=   22.1431   18.4713   16.8459 Q=    0.4170 A=    0.0000 R=    0.0000 C=    0.0000
 XYZ=   25.0206   25.1827   14.4873 Q=   -0.8340 A=    0.0000 R=    0.0000 C=    0.0000
 XYZ=   25.1684   25.7871   15.2147 Q=    0.4170 A=    0.0000 R=    0.0000 C=    0.0000
 XYZ=   24.4136   25.6459   13.9100 Q=    0.4170 A=    0.0000 R=    0.0000 C=    0.0000
 XYZ=   16.4158   25.5949   27.4559 Q=   -0.8340 A=    0.0000 R=    0.0000 C=    0.0000
 XYZ=   16.9262   25.1066   28.1019 Q=    0.4170 A=    0.0000 R=    0.0000 C=    0.0000
 XYZ=   16.3065   24.9853   26.7260 Q=    0.4170 A=    0.0000 R=    0.0000 C=    0.0000
 XYZ=   19.4169    2.0903   17.0572 Q=   -0.8340 A=    0.0000 R=    0.0000 C=    0.0000
 XYZ=   20.2189    2.1174   17.5791 Q=    0.4170 A=    0.0000 R=    0.0000 C=    0.0000
 XYZ=   19.7215    2.0098   16.1533 Q=    0.4170 A=    0.0000 R=    0.0000 C=    0.0000
 XYZ=    9.1519    5.8371   21.7436 Q=   -0.8340 A=    0.0000 R=    0.0000 C=    0.0000
 XYZ=    9.9715    6.1731   22.1065 Q=    0.4170 A=    0.0000 R=    0.0000 C=    0.0000
 XYZ=    8.8540    5.1899   22.3829 Q=    0.4170 A=    0.0000 R=    0.0000 C=    0.0000
 XYZ=    9.3891   14.8267   20.0027 Q=   -0.8340 A=    0.0000 R=    0.0000 C=    0.0000
 XYZ=    9.9613   14.1420   19.6564 Q=    0.4170 A=    0.0000 R=    0.0000 C=    0.0000
 XYZ=    9.6848   15.6279   19.5705 Q=    0.4170 A=    0.0000 R=    0.0000 C=    0.0000
 XYZ=   12.2675   21.5464   21.7895 Q=   -0.8340 A=    0.0000 R=    0.0000 C=    0.0000
 XYZ=   11.8984   20.7588   21.3898 Q=    0.4170 A=    0.0000 R=    0.0000 C=    0.0000
 XYZ=   12.1574   21.4119   22.7308 Q=    0.4170 A=    0.0000 R=    0.0000 C=    0.0000
 XYZ=    7.5545   22.4845   24.7513 Q=   -0.8340 A=    0.0000 R=    0.0000 C=    0.0000
 XYZ=    6.8349   22.4563   25.3819 Q=    0.4170 A=    0.0000 R=    0.0000 C=    0.0000
 XYZ=    7.4586   23.3314   24.3155 Q=    0.4170 A=    0.0000 R=    0.0000 C=    0.0000
 XYZ=   19.7870   21.6502    9.8232 Q=   -0.8340 A=    0.0000 R=    0.0000 C=    0.0000
 XYZ=   20.2673   22.4551   10.0177 Q=    0.4170 A=    0.0000 R=    0.0000 C=    0.0000
 XYZ=   20.1991   20.9855   10.3751 Q=    0.4170 A=    0.0000 R=    0.0000 C=    0.0000
 XYZ=   18.6802   21.1412    3.0070 Q=   -0.8340 A=    0.0000 R=    0.0000 C=    0.0000
 XYZ=   18.7070   21.9776    2.5422 Q=    0.4170 A=    0.0000 R=    0.0000 C=    0.0000
 XYZ=   19.3763   20.6212    2.6056 Q=    0.4170 A=    0.0000 R=    0.0000 C=    0.0000
 XYZ=   22.2969   24.1254   12.3138 Q=   -0.8340 A=    0.0000 R=    0.0000 C=    0.0000
 XYZ=   21.5857   24.3843   11.7277 Q=    0.4170 A=    0.0000 R=    0.0000 C=    0.0000
 XYZ=   22.4974   24.9175   12.8123 Q=    0.4170 A=    0.0000 R=    0.0000 C=    0.0000
 XYZ=   24.9822   17.2779    7.3992 Q=   -0.8340 A=    0.0000 R=    0.0000 C=    0.0000
 XYZ=   25.4763   16.7803    8.0507 Q=    0.4170 A=    0.0000 R=    0.0000 C=    0.0000
 XYZ=   24.5063   17.9339    7.9085 Q=    0.4170 A=    0.0000 R=    0.0000 C=    0.0000
 XYZ=   23.4662   23.8545   17.3422 Q=   -0.8340 A=    0.0000 R=    0.0000 C=    0.0000
 XYZ=   24.0029   23.6230   16.5842 Q=    0.4170 A=    0.0000 R=    0.0000 C=    0.0000
 XYZ=   22.5667   23.8307   17.0157 Q=    0.4170 A=    0.0000 R=    0.0000 C=    0.0000
 XYZ=   12.7920   15.7085   22.3469 Q=   -0.8340 A=    0.0000 R=    0.0000 C=    0.0000
 XYZ=   13.5393   15.1245   22.4767 Q=    0.4170 A=    0.0000 R=    0.0000 C=    0.0000
 XYZ=   12.0396   15.2100   22.6658 Q=    0.4170 A=    0.0000 R=    0.0000 C=    0.0000
 XYZ=   26.2560   15.8233    9.4513 Q=   -0.8340 A=    0.0000 R=    0.0000 C=    0.0000
 XYZ=   27.1238   15.5286    9.7277 Q=    0.4170 A=    0.0000 R=    0.0000 C=    0.0000
 XYZ=   25.6481   15.3253    9.9980 Q=    0.4170 A=    0.0000 R=    0.0000 C=    0.0000
 XYZ=    8.0546   20.8473   22.4422 Q=   -0.8340 A=    0.0000 R=    0.0000 C=    0.0000
 XYZ=    7.9888   21.4412   23.1900 Q=    0.4170 A=    0.0000 R=    0.0000 C=    0.0000
 XYZ=    7.2035   20.4108   22.4068 Q=    0.4170 A=    0.0000 R=    0.0000 C=    0.0000
 XYZ=    9.3846   20.0207   25.6414 Q=   -0.8340 A=    0.0000 R=    0.0000 C=    0.0000
 XYZ=    9.3369   20.7999   26.1953 Q=    0.4170 A=    0.0000 R=    0.0000 C=    0.0000
 XYZ=   10.2142   20.1101   25.1724 Q=    0.4170 A=    0.0000 R=    0.0000 C=    0.0000
 XYZ=   15.2779   10.2091    7.2783 Q=   -0.8340 A=    0.0000 R=    0.0000 C=    0.0000
 XYZ=   15.7015   10.4720    6.4612 Q=    0.4170 A=    0.0000 R=    0.0000 C=    0.0000
 XYZ=   15.7162   10.7272    7.9534 Q=    0.4170 A=    0.0000 R=    0.0000 C=    0.0000
 XYZ=    7.7088    7.0074   12.7005 Q=   -0.8340 A=    0.0000 R=    0.0000 C=    0.0000
 XYZ=    6.9675    6.7438   13.2456 Q=    0.4170 A=    0.0000 R=    0.0000 C=    0.0000
 XYZ=    8.2078    6.2013   12.5678 Q=    0.4170 A=    0.0000 R=    0.0000 C=    0.0000
 XYZ=   25.2417   12.7501   22.9180 Q=   -0.8340 A=    0.0000 R=    0.0000 C=    0.0000
 XYZ=   25.4983   12.6058   22.0072 Q=    0.4170 A=    0.0000 R=    0.0000 C=    0.0000
 XYZ=   25.7447   12.1043   23.4142 Q=    0.4170 A=    0.0000 R=    0.0000 C=    0.0000
 XYZ=    6.3440   14.3834    6.6447 Q=   -0.8340 A=    0.0000 R=    0.0000 C=    0.0000
 XYZ=    6.8529   14.6708    7.4028 Q=    0.4170 A=    0.0000 R=    0.0000 C=    0.0000
 XYZ=    5.5891   14.9717    6.6255 Q=    0.4170 A=    0.0000 R=    0.0000 C=    0.0000
 XYZ=   10.6381   20.9676   18.5329 Q=   -0.8340 A=    0.0000 R=    0.0000 C=    0.0000
 XYZ=   10.1542   20.5855   19.2650 Q=    0.4170 A=    0.0000 R=    0.0000 C=    0.0000
 XYZ=   11.4841   20.5199   18.5447 Q=    0.4170 A=    0.0000 R=    0.0000 C=    0.0000
 XYZ=   17.8001    3.0387   23.5601 Q=   -0.8340 A=    0.0000 R=    0.0000 C=    0.0000
 XYZ=   16.9883    3.4348   23.8769 Q=    0.4170 A=    0.0000 R=    0.0000 C=    0.0000
 XYZ=   17.8206    3.2477   22.6262 Q=    0.4170 A=    0.0000 R=    0.0000 C=    0.0000
 XYZ=   26.4394   12.4781   20.5165 Q=   -0.8340 A=    0.0000 R=    0.0000 C=    0.0000
 XYZ=   27.2136   13.0034   20.3143 Q=    0.4170 A=    0.0000 R=    0.0000 C=    0.0000
 XYZ=   25.7629   12.8108   19.9267 Q=    0.4170 A=    0.0000 R=    0.0000 C=    0.0000
 XYZ=   18.3478   20.3871   13.4985 Q=   -0.8340 A=    0.0000 R=    0.0000 C=    0.0000
 XYZ=   18.0844   21.2814   13.2815 Q=    0.4170 A=    0.0000 R=    0.0000 C=    0.0000
 XYZ=   18.4370   19.9508   12.6512 Q=    0.4170 A=    0.0000 R=    0.0000 C=    0.0000
 XYZ=   18.3185   12.0815    5.5262 Q=   -0.8340 A=    0.0000 R=    0.0000 C=    0.0000
 XYZ=   18.9622   12.7825    5.6287 Q=    0.4170 A=    0.0000 R=    0.0000 C=    0.0000
 XYZ=   18.7695   11.2948    5.8326 Q=    0.4170 A=    0.0000 R=    0.0000 C=    0.0000
 XYZ=   20.4323   25.9187   27.2832 Q=   -0.8340 A=    0.0000 R=    0.0000 C=    0.0000
 XYZ=   21.3514   25.6789   27.1650 Q=    0.4170 A=    0.0000 R=    0.0000 C=    0.0000
 XYZ=   20.1484   25.4129   28.0447 Q=    0.4170 A=    0.0000 R=    0.0000 C=    0.0000
 XYZ=   19.5770   29.6081   14.2779 Q=   -0.8340 A=    0.0000 R=    0.0000 C=    0.0000
 XYZ=   20.4234   29.8671   14.6423 Q=    0.4170 A=    0.0000 R=    0.0000 C=    0.0000
 XYZ=   19.7936   28.9710   13.5972 Q=    0.4170 A=    0.0000 R=    0.0000 C=    0.0000
 XYZ=    9.7791   22.6698    9.4343 Q=   -0.8340 A=    0.0000 R=    0.0000 C=    0.0000
 XYZ=   10.0513   23.2808    8.7496 Q=    0.4170 A=    0.0000 R=    0.0000 C=    0.0000
 XYZ=    8.8675   22.9006    9.6132 Q=    0.4170 A=    0.0000 R=    0.0000 C=    0.0000
 XYZ=   17.7255   16.4139   23.1179 Q=   -0.8340 A=    0.0000 R=    0.0000 C=    0.0000
 XYZ=   16.8818   16.7649   22.8330 Q=    0.4170 A=    0.0000 R=    0.0000 C=    0.0000
 XYZ=   18.0593   17.0637   23.7363 Q=    0.4170 A=    0.0000 R=    0.0000 C=    0.0000
 XYZ=    5.3757   17.5754   17.8333 Q=   -0.8340 A=    0.0000 R=    0.0000 C=    0.0000
 XYZ=    5.2351   16.6937   17.4882 Q=    0.4170 A=    0.0000 R=    0.0000 C=    0.0000
 XYZ=    6.3188   17.6246   17.9889 Q=    0.4170 A=    0.0000 R=    0.0000 C=    0.0000
 XYZ=   27.8583   12.7095    9.1782 Q=   -0.8340 A=    0.0000 R=    0.0000 C=    0.0000
 XYZ=   28.6244   12.2107    9.4619 Q=    0.4170 A=    0.0000 R=    0.0000 C=    0.0000
 XYZ=   27.6928   12.4078    8.2850 Q=    0.4170 A=    0.0000 R=    0.0000 C=    0.0000
 XYZ=   15.9691    6.3637    9.4197 Q=   -0.8340 A=    0.0000 R=    0.0000 C=    0.0000
 XYZ=   15.5754    5.9446    8.6544 Q=    0.4170 A=    0.0000 R=    0.0000 C=    0.0000
 XYZ=   15.2671    6.9012    9.7866 Q=    0.4170 A=    0.0000 R=    0.0000 C=    0.0000
 XYZ=   20.1699   14.0588    5.7778 Q=   -0.8340 A=    0.0000 R=    0.0000 C=    0.0000
 XYZ=   19.9639   14.5232    4.9665 Q=    0.4170 A=    0.0000 R=    0.0000 C=    0.0000
 XYZ=   20.9311   14.5192    6.1312 Q=    0.4170 A=    0.0000 R=    0.0000 C=    0.0000
 XYZ=   23.7065   14.9980   23.0365 Q=   -0.8340 A=    0.0000 R=    0.0000 C=    0.0000
 XYZ=   24.2698   14.2695   23.2976 Q=    0.4170 A=    0.0000 R=    0.0000 C=    0.0000
 XYZ=   23.4023   14.7639   22.1596 Q=    0.4170 A=    0.0000 R=    0.0000 C=    0.0000
 XYZ=   11.9647   15.3335    3.3690 Q=   -0.8340 A=    0.0000 R=    0.0000 C=    0.0000
 XYZ=   11.4813   14.5680    3.6798 Q=    0.4170 A=    0.0000 R=    0.0000 C=    0.0000
 XYZ=   12.5955   14.9805    2.7415 Q=    0.4170 A=    0.0000 R=    0.0000 C=    0.0000
 XYZ=   22.9458   27.2263    8.4011 Q=   -0.8340 A=    0.0000 R=    0.0000 C=    0.0000
 XYZ=   22.3504   27.9740    8.3492 Q=    0.4170 A=    0.0000 R=    0.0000 C=    0.0000
 XYZ=   22.9167   26.9597    9.3200 Q=    0.4170 A=    0.0000 R=    0.0000 C=    0.0000
 XYZ=   19.0552   10.3299   28.9268 Q=   -0.8340 A=    0.0000 R=    0.0000 C=    0.0000
 XYZ=   19.2994    9.5842   28.3787 Q=    0.4170 A=    0.0000 R=    0.0000 C=    0.0000
 XYZ=   19.6592   10.2906   29.6684 Q=    0.4170 A=    0.0000 R=    0.0000 C=    0.0000
 XYZ=   22.2001   15.2640    7.1239 Q=   -0.8340 A=    0.0000 R=    0.0000 C=    0.0000
 XYZ=   22.8347   15.8939    6.7822 Q=    0.4170 A=    0.0000 R=    0.0000 C=    0.0000
 XYZ=   22.4219   15.1787    8.0511 Q=    0.4170 A=    0.0000 R=    0.0000 C=    0.0000
 XYZ=   11.4423   22.1038   14.2738 Q=   -0.8340 A=    0.0000 R=    0.0000 C=    0.0000
 XYZ=   10.5896   21.7895   13.9733 Q=    0.4170 A=    0.0000 R=    0.0000 C=    0.0000
 XYZ=   11.2902   22.3847   15.1761 Q=    0.4170 A=    0.0000 R=    0.0000 C=    0.0000
 XYZ=   12.6142   19.8103   27.6089 Q=   -0.8340 A=    0.0000 R=    0.0000 C=    0.0000
 XYZ=   11.8500   20.0307   28.1415 Q=    0.4170 A=    0.0000 R=    0.0000 C=    0.0000
 XYZ=   12.3615   20.0478   26.7167 Q=    0.4170 A=    0.0000 R=    0.0000 C=    0.0000
 XYZ=   16.5503   23.5484   10.3195 Q=   -0.8340 A=    0.0000 R=    0.0000 C=    0.0000
 XYZ=   15.9511   22.9953    9.8183 Q=    0.4170 A=    0.0000 R=    0.0000 C=    0.0000
 XYZ=   17.3456   23.5837    9.7880 Q=    0.4170 A=    0.0000 R=    0.0000 C=    0.0000
 XYZ=   19.1521    9.6552    6.9568 Q=   -0.8340 A=    0.0000 R=    0.0000 C=    0.0000
 XYZ=   20.0642    9.5217    7.2148 Q=    0.4170 A=    0.0000 R=    0.0000 C=    0.0000
 XYZ=   18.6479    9.1275    7.5762 Q=    0.4170 A=    0.0000 R=    0.0000 C=    0.0000
 XYZ=   30.4101   21.8034   22.3614 Q=   -0.8340 A=    0.0000 R=    0.0000 C=    0.0000
 XYZ=   29.8254   21.7984   21.6035 Q=    0.4170 A=    0.0000 R=    0.0000 C=    0.0000
 XYZ=   30.5288   20.8789   22.5790 Q=    0.4170 A=    0.0000 R=    0.0000 C=    0.0000
 XYZ=   21.2104   12.5020   29.9244 Q=   -0.8340 A=    0.0000 R=    0.0000 C=    0.0000
 XYZ=   22.0170   12.8619   30.2933 Q=    0.4170 A=    0.0000 R=    0.0000 C=    0.0000
 XYZ=   21.1265   11.6382   30.3282 Q=    0.4170 A=    0.0000 R=    0.0000 C=    0.0000
 XYZ=    8.4692   16.3279   11.3678 Q=   -0.8340 A=    0.0000 R=    0.0000 C=    0.0000
 XYZ=    8.0260   17.1670   11.4929 Q=    0.4170 A=    0.0000 R=    0.0000 C=    0.0000
 XYZ=    8.4392   15.9100   12.2285 Q=    0.4170 A=    0.0000 R=    0.0000 C=    0.0000
 XYZ=   16.1695   23.8126   15.2671 Q=   -0.8340 A=    0.0000 R=    0.0000 C=    0.0000
 XYZ=   16.3641   23.8940   14.3334 Q=    0.4170 A=    0.0000 R=    0.0000 C=    0.0000
 XYZ=   16.6300   24.5470   15.6731 Q=    0.4170 A=    0.0000 R=    0.0000 C=    0.0000
 XYZ=   24.8583   10.2641   19.9374 Q=   -0.8340 A=    0.0000 R=    0.0000 C=    0.0000
 XYZ=   25.4932   10.9694   20.0624 Q=    0.4170 A=    0.0000 R=    0.0000 C=    0.0000
 XYZ=   24.5032   10.1031   20.8116 Q=    0.4170 A=    0.0000 R=    0.0000 C=    0.0000
 XYZ=   29.1352   24.3727   19.3515 Q=   -0.8340 A=    0.0000 R=    0.0000 C=    0.0000
 XYZ=   28.8262   24.0993   18.4877 Q=    0.4170 A=    0.0000 R=    0.0000 C=    0.0000
 XYZ=   30.0305   24.0381   19.4031 Q=    0.4170 A=    0.0000 R=    0.0000 C=    0.0000
 XYZ=   17.2064    5.6170   21.4808 Q=   -0.8340 A=    0.0000 R=    0.0000 C=    0.0000
 XYZ=   17.7236    6.0878   20.8273 Q=    0.4170 A=    0.0000 R=    0.0000 C=    0.0000
 XYZ=   16.7646    4.9271   20.9856 Q=    0.4170 A=    0.0000 R=    0.0000 C=    0.0000
 XYZ=   25.9518   27.4122   22.2811 Q=   -0.8340 A=    0.0000 R=    0.0000 C=    0.0000
 XYZ=   25.2641   27.3180   22.9402 Q=    0.4170 A=    0.0000 R=    0.0000 C=    0.0000
 XYZ=   26.0719   26.5291   21.9317 Q=    0.4170 A=    0.0000 R=    0.0000 C=    0.0000
 XYZ=    8.4017    5.9201   17.1354 Q=   -0.8340 A=    0.0000 R=    0.0000 C=    0.0000
 XYZ=    8.8374    5.1860   17.5684 Q=    0.4170 A=    0.0000 R=    0.0000 C=    0.0000
 XYZ=    7.5050    5.6169   16.9933 Q=    0.4170 A=    0.0000 R=    0.0000 C=    0.0000
 XYZ=    8.6466   23.8581   21.7704 Q=   -0.8340 A=    0.0000 R=    0.0000 C=    0.0000
 XYZ=    7.9276   24.4410   22.0144 Q=    0.4170 A=    0.0000 R=    0.0000 C=    0.0000
 XYZ=    8.2256   23.1470   21.2873 Q=    0.4170 A=    0.0000 R=    0.0000 C=    0.0000
 XYZ=   12.4104   29.4803   13.7394 Q=   -0.8340 A=    0.0000 R=    0.0000 C=    0.0000
 XYZ=   12.5762   28.9996   12.9285 Q=    0.4170 A=    0.0000 R=    0.0000 C=    0.0000
 XYZ=   13.1537   30.0781   13.8203 Q=    0.4170 A=    0.0000 R=    0.0000 C=    0.0000
 XYZ=    8.4650   11.5811    7.8125 Q=   -0.8340 A=    0.0000 R=    0.0000 C=    0.0000
 XYZ=    8.9725   12.3742    7.6406 Q=    0.4170 A=    0.0000 R=    0.0000 C=    0.0000
 XYZ=    8.4035   11.5376    8.7667 Q=    0.4170 A=    0.0000 R=    0.0000 C=    0.0000
 XYZ=   21.1639   26.2010   22.1027 Q=   -0.8340 A=    0.0000 R=    0.0000 C=    0.0000
 XYZ=   21.4100   26.9957   22.5762 Q=    0.4170 A=    0.0000 R=    0.0000 C=    0.0000
 XYZ=   20.7703   25.6371   22.7685 Q=    0.4170 A=    0.0000 R=    0.0000 C=    0.0000
 XYZ=   10.4416   17.3773   10.1626 Q=   -0.8340 A=    0.0000 R=    0.0000 C=    0.0000
 XYZ=    9.8663   17.8033    9.5272 Q=    0.4170 A=    0.0000 R=    0.0000 C=    0.0000
 XYZ=    9.8565   16.8314   10.6879 Q=    0.4170 A=    0.0000 R=    0.0000 C=    0.0000
 XYZ=    3.8077   13.4052   11.3887 Q=   -0.8340 A=    0.0000 R=    0.0000 C=    0.0000
 XYZ=    4.6751   13.3621   11.7912 Q=    0.4170 A=    0.0000 R=    0.0000 C=    0.0000
 XYZ=    3.6569   12.5232   11.0487 Q=    0.4170 A=    0.0000 R=    0.0000 C=    0.0000
 XYZ=   27.7417   20.4756   12.8489 Q=   -0.8340 A=    0.0000 R=    0.0000 C=    0.0000
 XYZ=   28.3686   20.2818   13.5458 Q=    0.4170 A=    0.0000 R=    0.0000 C=    0.0000
 XYZ=   28.2848   20.6804   12.0877 Q=    0.4170 A=    0.0000 R=    0.0000 C=    0.0000
 XYZ=   11.4696   28.2680   15.9404 Q=   -0.8340 A=    0.0000 R=    0.0000 C=    0.0000
 XYZ=   11.7028   29.0352   16.4632 Q=    0.4170 A=    0.0000 R=    0.0000 C=    0.0000
 XYZ=   11.6240   28.5385   15.0353 Q=    0.4170 A=    0.0000 R=    0.0000 C=    0.0000
 XYZ=   14.3824   24.6286    4.3258 Q=   -0.8340 A=    0.0000 R=    0.0000 C=    0.0000
 XYZ=   13.7483   24.9409    3.6802 Q=    0.4170 A=    0.0000 R=    0.0000 C=    0.0000
 XYZ=   13.9355   24.7245    5.1668 Q=    0.4170 A=    0.0000 R=    0.0000 C=    0.0000
 XYZ=   14.1096    4.4061   18.1505 Q=   -0.8340 A=    0.0000 R=    0.0000 C=    0.0000
 XYZ=   13.7592    5.2698   18.3683 Q=    0.4170 A=    0.0000 R=    0.0000 C=    0.0000
 XYZ=   13.3637    3.8138   18.2449 Q=    0.4170 A=    0.0000 R=    0.0000 C=    0.0000
 XYZ=   22.3001   28.3948   17.4974 Q=   -0.8340 A=    0.0000 R=    0.0000 C=    0.0000
 XYZ=   23.2492   28.3125   17.4037 Q=    0.4170 A=    0.0000 R=    0.0000 C=    0.0000
 XYZ=   22.0602   29.1017   16.8983 Q=    0.4170 A=    0.0000 R=    0.0000 C=    0.0000
 XYZ=   26.0492   18.9508   18.6595 Q=   -0.8340 A=    0.0000 R=    0.0000 C=    0.0000
 XYZ=   25.9804   18.1626   19.1984 Q=    0.4170 A=    0.0000 R=    0.0000 C=    0.0000
 XYZ=   25.1838   19.0457   18.2616 Q=    0.4170 A=    0.0000 R=    0.0000 C=    0.0000
 XYZ=   11.9107   30.1195   19.4368 Q=   -0.8340 A=    0.0000 R=    0.0000 C=    0.0000
 XYZ=   12.7784   29.7397   19.2988 Q=    0.4170 A=    0.0000 R=    0.0000 C=    0.0000
 XYZ=   11.6279   29.7709   20.2823 Q=    0.4170 A=    0.0000 R=    0.0000 C=    0.0000
 XYZ=   15.2768    7.2253   22.3223 Q=   -0.8340 A=    0.0000 R=    0.0000 C=    0.0000
 XYZ=   15.7738    8.0422   22.2807 Q=    0.4170 A=    0.0000 R=    0.0000 C=    0.0000
 XYZ=   15.9333    6.5387   22.2048 Q=    0.4170 A=    0.0000 R=    0.0000 C=    0.0000
 XYZ=   15.0218   21.4216   22.9578 Q=   -0.8340 A=    0.0000 R=    0.0000 C=    0.0000
 XYZ=   14.1903   21.2615   22.5115 Q=    0.4170 A=    0.0000 R=    0.0000 C=    0.0000
 XYZ=   14.9538   22.3218   23.2762 Q=    0.4170 A=    0.0000 R=    0.0000 C=    0.0000
 XYZ=    4.7785   20.7241   12.6167 Q=   -0.8340 A=    0.0000 R=    0.0000 C=    0.0000
 XYZ=    4.1311   20.2275   13.1172 Q=    0.4170 A=    0.0000 R=    0.0000 C=    0.0000
 XYZ=    4.3396   21.5488   12.4082 Q=    0.4170 A=    0.0000 R=    0.0000 C=    0.0000
 XYZ=   27.9734    9.9387   17.5622 Q=   -0.8340 A=    0.0000 R=    0.0000 C=    0.0000
 XYZ=   27.9447   10.1239   18.5009 Q=    0.4170 A=    0.0000 R=    0.0000 C=    0.0000
 XYZ=   28.9064    9.9220   17.3493 Q=    0.4170 A=    0.0000 R=    0.0000 C=    0.0000
 XYZ=    8.5972   12.1488   23.5248 Q=   -0.8340 A=    0.0000 R=    0.0000 C=    0.0000
 XYZ=    8.0188   12.9091   23.5854 Q=    0.4170 A=    0.0000 R=    0.0000 C=    0.0000
 XYZ=    8.3393   11.5919   24.2594 Q=    0.4170 A=    0.0000 R=    0.0000 C=    0.0000
 XYZ=   12.2432    8.7022   17.7852 Q=   -0.8340 A=    0.0000 R=    0.0000 C=    0.0000
 XYZ=   13.0348    8.9718   17.3194 Q=    0.4170 A=    0.0000 R=    0.0000 C=    0.0000
 XYZ=   11.5507    9.2530   17.4203 Q=    0.4170 A=    0.0000 R=    0.0000 C=    0.0000
 XYZ=    3.5145   23.3503   12.7390 Q=   -0.8340 A=    0.0000 R=    0.0000 C=    0.0000
 XYZ=    3.3548   24.1527   12.2421 Q=    0.4170 A=    0.0000 R=    0.0000 C=    0.0000
 XYZ=    4.2567   23.5624   13.3051 Q=    0.4170 A=    0.0000 R=    0.0000 C=    0.0000
 XYZ=   28.9207   17.7965   14.7879 Q=   -0.8340 A=    0.0000 R=    0.0000 C=    0.0000
 XYZ=   29.1772   18.7187   14.7874 Q=    0.4170 A=    0.0000 R=    0.0000 C=    0.0000
 XYZ=   29.5482   17.3731   15.3738 Q=    0.4170 A=    0.0000 R=    0.0000 C=    0.0000
 XYZ=   15.7619   15.7541   30.4682 Q=   -0.8340 A=    0.0000 R=    0.0000 C=    0.0000
 XYZ=   15.5862   15.3505   31.3182 Q=    0.4170 A=    0.0000 R=    0.0000 C=    0.0000
 XYZ=   16.6557   16.0886   30.5415 Q=    0.4170 A=    0.0000 R=    0.0000 C=    0.0000
 XYZ=   14.4812   15.9847    4.7706 Q=   -0.8340 A=    0.0000 R=    0.0000 C=    0.0000
 XYZ=   14.5271   16.7564    5.3350 Q=    0.4170 A=    0.0000 R=    0.0000 C=    0.0000
 XYZ=   13.5867   15.9894    4.4299 Q=    0.4170 A=    0.0000 R=    0.0000 C=    0.0000
 XYZ=    4.3004   15.0405    8.5595 Q=   -0.8340 A=    0.0000 R=    0.0000 C=    0.0000
 XYZ=    3.7332   14.6024    7.9250 Q=    0.4170 A=    0.0000 R=    0.0000 C=    0.0000
 XYZ=    4.4200   14.3977    9.2585 Q=    0.4170 A=    0.0000 R=    0.0000 C=    0.0000
 XYZ=   14.2161   12.7459    3.3393 Q=   -0.8340 A=    0.0000 R=    0.0000 C=    0.0000
 XYZ=   14.0206   13.0678    4.2193 Q=    0.4170 A=    0.0000 R=    0.0000 C=    0.0000
 XYZ=   14.2983   13.5372    2.8070 Q=    0.4170 A=    0.0000 R=    0.0000 C=    0.0000
 XYZ=   14.0653   20.1649   30.7942 Q=   -0.8340 A=    0.0000 R=    0.0000 C=    0.0000
 XYZ=   14.3223   19.3426   30.3771 Q=    0.4170 A=    0.0000 R=    0.0000 C=    0.0000
 XYZ=   14.0713   20.8065   30.0839 Q=    0.4170 A=    0.0000 R=    0.0000 C=    0.0000
 XYZ=    2.8609   13.2752   14.5377 Q=   -0.8340 A=    0.0000 R=    0.0000 C=    0.0000
 XYZ=    2.7085   12.3355   14.4382 Q=    0.4170 A=    0.0000 R=    0.0000 C=    0.0000
 XYZ=    3.2279   13.5492   13.6971 Q=    0.4170 A=    0.0000 R=    0.0000 C=    0.0000
 XYZ=   19.4256   13.7634    8.4698 Q=   -0.8340 A=    0.0000 R=    0.0000 C=    0.0000
 XYZ=   19.8265   13.7448    7.6008 Q=    0.4170 A=    0.0000 R=    0.0000 C=    0.0000
 XYZ=   19.8567   13.0553    8.9482 Q=    0.4170 A=    0.0000 R=    0.0000 C=    0.0000
 XYZ=   14.6506   13.4671    5.9220 Q=   -0.8340 A=    0.0000 R=    0.0000 C=    0.0000
 XYZ=   15.1914   13.6008    6.7004 Q=    0.4170 A=    0.0000 R=    0.0000 C=    0.0000
 XYZ=   14.6029   14.3306    5.5117 Q=    0.4170 A=    0.0000 R=    0.0000 C=    0.0000
 XYZ=    7.1716   23.3389   17.2356 Q=   -0.8340 A=    0.0000 R=    0.0000 C=    0.0000
 XYZ=    7.7467   22.5774   17.1607 Q=    0.4170 A=    0.0000 R=    0.0000 C=    0.0000
 XYZ=    6.8415   23.3029   18.1334 Q=    0.4170 A=    0.0000 R=    0.0000 C=    0.0000
 XYZ=   24.6794    7.0696   18.9109 Q=   -0.8340 A=    0.0000 R=    0.0000 C=    0.0000
 XYZ=   25.2460    6.4672   19.3929 Q=    0.4170 A=    0.0000 R=    0.0000 C=    0.0000
 XYZ=   24.0830    7.4195   19.5728 Q=    0.4170 A=    0.0000 R=    0.0000 C=    0.0000
 XYZ=   24.8846   19.3290   11.3895 Q=   -0.8340 A=    0.0000 R=    0.0000 C=    0.0000
 XYZ=   25.0197   19.7782   10.5552 Q=    0.4170 A=    0.0000 R=    0.0000 C=    0.0000
 XYZ=   25.7098   19.4444   11.8606 Q=    0.4170 A=    0.0000 R=    0.0000 C=    0.0000
 XYZ=   22.3043   14.1733   16.9218 Q=   -0.8340 A=    0.0000 R=    0.0000 C=    0.0000
 XYZ=   22.2601   15.0242   16.4858 Q=    0.4170 A=    0.0000 R=    0.0000 C=    0.0000
 XYZ=   21.3906   13.9047   17.0173 Q=    0.4170 A=    0.0000 R=    0.0000 C=    0.0000
 XYZ=   11.8284   12.9819   12.5000 Q=   -0.8340 A=    0.0000 R=    0.0000 C=    0.0000
 XYZ=   11.7234   12.7359   11.5810 Q=    0.4170 A=    0.0000 R=    0.0000 C=    0.0000
 XYZ=   12.6292   13.5060   12.5181 Q=    0.4170 A=    0.0000 R=    0.0000 C=    0.0000
 XYZ=   14.8276   13.3989   29.3431 Q=   -0.8340 A=    0.0000 R=    0.0000 C=    0.0000
 XYZ=   13.9315   13.6014   29.0741 Q=    0.4170 A=    0.0000 R=    0.0000 C=    0.0000
 XYZ=   15.1484   14.2094   29.7386 Q=    0.4170 A=    0.0000 R=    0.0000 C=    0.0000
 XYZ=   23.7840   23.4524   10.0051 Q=   -0.8340 A=    0.0000 R=    0.0000 C=    0.0000
 XYZ=   24.2881   24.2446   10.1906 Q=    0.4170 A=    0.0000 R=    0.0000 C=    0.0000
 XYZ=   23.2678   23.3053   10.7977 Q=    0.4170 A=    0.0000 R=    0.0000 C=    0.0000
 XYZ=    8.6778   19.0065   15.3001 Q=   -0.8340 A=    0.0000 R=    0.0000 C=    0.0000
 XYZ=    7.8853   18.6522   14.8970 Q=    0.4170 A=    0.0000 R=    0.0000 C=    0.0000
 XYZ=    9.3947   18.6421   14.7808 Q=    0.4170 A=    0.0000 R=    0.0000 C=    0.0000
 XYZ=   10.7505   11.2989   14.5231 Q=   -0.8340 A=    0.0000 R=    0.0000 C=    0.0000
 XYZ=   10.9327   12.0136   13.9129 Q=    0.4170 A=    0.0000 R=    0.0000 C=    0.0000
 XYZ=   11.3372   10.5940   14.2492 Q=    0.4170 A=    0.0000 R=    0.0000 C=    0.0000
 XYZ=   24.3897   15.8655   15.6866 Q=   -0.8340 A=    0.0000 R=    0.0000 C=    0.0000
 XYZ=   25.3381   15.9811   15.7455 Q=    0.4170 A=    0.0000 R=    0.0000 C=    0.0000
 XYZ=   24.0323   16.7436   15.8185 Q=    0.4170 A=    0.0000 R=    0.0000 C=    0.0000
 XYZ=   16.6252   17.2330    2.7690 Q=   -0.8340 A=    0.0000 R=    0.0000 C=    0.0000
 XYZ=   15.9428   16.7093    3.1889 Q=    0.4170 A=    0.0000 R=    0.0000 C=    0.0000
 XYZ=   16.8361   17.9113    3.4106 Q=    0.4170 A=    0.0000 R=    0.0000 C=    0.0000
 XYZ=   21.7937   18.7250   26.3801 Q=   -0.8340 A=    0.0000 R=    0.0000 C=    0.0000
 XYZ=   20.9638   18.8847   26.8294 Q=    0.4170 A=    0.0000 R=    0.0000 C=    0.0000
 XYZ=   21.5778   18.0927   25.6946 Q=    0.4170 A=    0.0000 R=    0.0000 C=    0.0000
 XYZ=    6.1255    7.6924   18.6116 Q=   -0.8340 A=    0.0000 R=    0.0000 C=    0.0000
 XYZ=    6.1848    8.3169   19.3346 Q=    0.4170 A=    0.0000 R=    0.0000 C=    0.0000
 XYZ=    6.2565    8.2225   17.8254 Q=    0.4170 A=    0.0000 R=    0.0000 C=    0.0000
 XYZ=   17.8944   25.9034   15.8813 Q=   -0.8340 A=    0.0000 R=    0.0000 C=    0.0000
 XYZ=   18.2270   26.5895   16.4600 Q=    0.4170 A=    0.0000 R=    0.0000 C=    0.0000
 XYZ=   17.2425   26.3442   15.3364 Q=    0.4170 A=    0.0000 R=    0.0000 C=    0.0000
 XYZ=   12.1824    9.5993    8.5638 Q=   -0.8340 A=    0.0000 R=    0.0000 C=    0.0000
 XYZ=   13.0665    9.6421    8.1996 Q=    0.4170 A=    0.0000 R=    0.0000 C=    0.0000
 XYZ=   12.2866    9.1324    9.3929 Q=    0.4170 A=    0.0000 R=    0.0000 C=    0.0000
 XYZ=    5.2931   21.0782   15.8948 Q=   -0.8340 A=    0.0000 R=    0.0000 C=    0.0000
 XYZ=    5.5557   21.9734   16.1087 Q=    0.4170 A=    0.0000 R=    0.0000 C=    0.0000
 XYZ=    5.9942   20.7505   15.3315 Q=    0.4170 A=    0.0000 R=    0.0000 C=    0.0000
 XYZ=   24.1653   22.4531   19.8339 Q=   -0.8340 A=    0.0000 R=    0.0000 C=    0.0000
 XYZ=   23.2350   22.5572   20.0335 Q=    0.4170 A=    0.0000 R=    0.0000 C=    0.0000
 XYZ=   24.3464   23.1251   19.1767 Q=    0.4170 A=    0.0000 R=    0.0000 C=    0.0000
 XYZ=   11.3677    3.4652   20.9137 Q=   -0.8340 A=    0.0000 R=    0.0000 C=    0.0000
 XYZ=   11.2504    4.2535   21.4438 Q=    0.4170 A=    0.0000 R=    0.0000 C=    0.0000
 XYZ=   10.5198    3.0227   20.9509 Q=    0.4170 A=    0.0000 R=    0.0000 C=    0.0000
 XYZ=   13.9015    7.1670   14.0174 Q=   -0.8340 A=    0.0000 R=    0.0000 C=    0.0000
 XYZ=   13.8906    6.2116   13.9602 Q=    0.4170 A=    0.0000 R=    0.0000 C=    0.0000
 XYZ=   14.7397    7.4210   13.6313 Q=    0.4170 A=    0.0000 R=    0.0000 C=    0.0000
 XYZ=    6.5288   24.6753   23.6183 Q=   -0.8340 A=    0.0000 R=    0.0000 C=    0.0000
 XYZ=    5.7031   24.1926   23.6566 Q=    0.4170 A=    0.0000 R=    0.0000 C=    0.0000
 XYZ=    6.4003   25.3156   22.9186 Q=    0.4170 A=    0.0000 R=    0.0000 C=    0.0000
 XYZ=   21.9059    9.5897   24.3075 Q=   -0.8340 A=    0.0000 R=    0.0000 C=    0.0000
 XYZ=   22.0792   10.2200   23.6082 Q=    0.4170 A=    0.0000 R=    0.0000 C=    0.0000
 XYZ=   21.4900   10.1058   24.9981 Q=    0.4170 A=    0.0000 R=    0.0000 C=    0.0000
 XYZ=   10.2509   23.5463   16.3358 Q=   -0.8340 A=    0.0000 R=    0.0000 C=    0.0000
 XYZ=    9.7977   22.7600   16.6401 Q=    0.4170 A=    0.0000 R=    0.0000 C=    0.0000
 XYZ=    9.9180   24.2473   16.8961 Q=    0.4170 A=    0.0000 R=    0.0000 C=    0.0000
 XYZ=   12.2530    7.7927   10.6371 Q=   -0.8340 A=    0.0000 R=    0.0000 C=    0.0000
 XYZ=   12.5866    6.8962   10.6723 Q=    0.4170 A=    0.0000 R=    0.0000 C=    0.0000
 XYZ=   11.3125    7.7051   10.7922 Q=    0.4170 A=    0.0000 R=    0.0000 C=    0.0000
 XYZ=   14.7789   25.1413   20.7052 Q=   -0.8340 A=    0.0000 R=    0.0000 C=    0.0000
 XYZ=   14.3167   25.9787   20.7417 Q=    0.4170 A=    0.0000 R=    0.0000 C=    0.0000
 XYZ=   14.5992   24.7309   21.5511 Q=    0.4170 A=    0.0000 R=    0.0000 C=    0.0000
 XYZ=    3.8637   20.9151   20.4166 Q=   -0.8340 A=    0.0000 R=    0.0000 C=    0.0000
 XYZ=    3.4045   21.7256   20.6365 Q=    0.4170 A=    0.0000 R=    0.0000 C=    0.0000
[...]
 00003832,0.00002685,0.00006521,0.00001542,0.00025777,0.00021329,0.0000
 4154,-0.00018943,-0.00030940,0.00085498,0.00034540,-0.00039048,-0.0009
 4051,-0.00002537,0.00002005,-0.00006391,0.00026375,-0.00020100,0.00000
 529,-0.00007404,0.00008497,0.00004258,-0.00013813,0.00011288,-0.000008
 53,0.00002045,0.00000848,0.00065817,0.00011330,0.00026820,-0.00062092,
 -0.00020045,-0.00019035,-0.00029704,0.01307569,0.00026806,-0.00880486,
 -0.00101228,-0.00067476,0.00292549,-0.00334935,0.00103000,0.00147812,-
 0.00041144,-0.00003317,-0.00004744,0.00017180,-0.00004368,0.00005648,0
 .00046340,0.00006198,0.00007961,-0.00003437,-0.00016987,-0.00003270,0.
 00001635,0.00017702,0.00005001,0.00000838,0.00005228,0.00001405,0.0012
 0311,-0.00007365,-0.00171161,0.00005260,0.00014063,0.00030291,-0.00037
 834,-0.00030193,0.00028219,-0.00004207,-0.00005397,0.00028001,0.000006
 99,0.00003791,-0.00014006,0.00000506,0.00000990,-0.00011061,-0.0000602
 2,-0.00009374,0.00000596,0.00002747,0.00002437,0.00000705,0.00004669,0
 .00006016,-0.00003737,0.00240932,0.00637521,0.00032582,-0.00013718,-0.
 00433553,-0.00560299,-0.00083056,-0.00025758,-0.00009329,-0.00016026,-
 0.00009559,0.00020543,0.00005431,-0.00005947,-0.00021276,0.00004157,0.
 00004414,-0.00006016,-0.00008372,-0.00010334,-0.00006744,0.00003994,0.
 00006915,0.00000815,0.00006028,0.00006234,0.00005564,-0.00001400,-0.00
 010552,-0.00006827,0.00000396,0.00006204,0.00005695,0.00001731,0.00004
 282,0.00003104,0.00003089,-0.00013166,-0.00022079,-0.00001855,0.000035
 67,0.00010350,-0.00004102,0.00007223,0.00009074,0.00065531,-0.00107846
 ,0.00144350,0.00006687,0.00081051,-0.00048857,-0.00114184,0.00171912,-
 0.00072148,-0.00080988,-0.00020624,0.00088507,-0.00013388,-0.00004237,
 -0.00076413,0.00069083,0.00025001,-0.00021821,0.00010727,-0.00016232,0
 .00013721,-0.00014121,0.00013715,-0.00010822,-0.00001887,0.00003893,-0
 .00010669,-0.30502042,0.14896666,0.44287989,0.00012821,0.00004487,-0.0
 0001854,0.00004795,-0.00002047,-0.00002414,-0.00016737,-0.00012330,0.0
 0000242,0.00052698,-0.00001618,-0.00009839,-0.00015495,0.00010012,0.00
 000589,0.00000995,0.00001386,0.00003365,0.00005958,-0.00002332,0.00001
 054,-0.00049443,0.00012969,0.00015072,-0.00004547,-0.00001939,-0.00000
 579,-0.00010146,0.00001113,0.00001441,0.00003649,0.00001312,0.00001341
 ,0.00003770,0.00000944,0.00000736,-0.00005283,0.00000591,-0.00001031,0
 .00003097,-0.00000549,0.00001101,0.00003296,-0.00001109,-0.00000463,-0
 .00006248,0.00007108,0.00003955,0.00001502,-0.00003486,-0.00002316,0.0
 0007159,-0.00002596,-0.00000674,-0.00011362,-0.00019241,-0.00000481,0.
 00006141,0.00006270,-0.00004394,0.00003504,0.00009520,0.00002178,-0.00
 002073,-0.00004518,-0.00004890,0.00001122,0.00001543,0.00002049,-0.000
 00477,0.00003185,0.00003576,-0.00014266,0.00006218,0.00001819,0.000125
 84,-0.00001719,-0.00001460,0.00007408,-0.00005021,0.00000223,-0.000533
 04,-0.00083718,-0.00045703,0.00050840,-0.00001150,0.00002145,-0.000210
 76,-0.00019623,0.00022513,-0.00006110,0.00010034,0.00019634,0.00000063
 ,-0.00000410,-0.00009866,0.00006660,-0.00011909,-0.00017805,-0.0000247
 5,-0.00000458,-0.00001003,0.00001354,0.00000949,0.00001022,0.00001036,
 -0.00000192,0.00000434,0.00003211,-0.00002838,-0.00024886,0.00004623,0
 .00003108,0.00006173,0.00000596,-0.00001266,0.00009772,-0.00004573,-0.
 00006157,-0.00000059,0.00003029,0.00000705,0.00000658,0.00001331,0.000
 01677,0.00000405,-0.00003550,0.00002772,0.00001515,0.00000907,-0.00000
 804,-0.00000433,0.00002110,-0.00000799,-0.00000093,-0.00082558,-0.0000
 0208,0.00094010,0.00114489,0.00021725,-0.00183597,0.00009808,-0.000568
 16,0.00008260,-0.00004652,0.00001334,0.00001435,0.00002753,-0.00002546
 ,-0.00001754,0.00001767,-0.00000003,-0.00000211,-0.00003040,0.00002493
 ,0.00002100,0.00001114,-0.00000884,-0.00000384,0.00002746,-0.00001027,
 -0.00001060,-0.00002033,0.00000151,-0.00000439,0.00001135,0.00000160,0
 .00000410,0.00001037,-0.00000162,-0.00000113,-0.00002851,-0.00001605,-
 0.00003759,0.00001030,0.00000471,0.00001629,0.00000757,0.00000855,0.00
 002115,-0.00049700,-0.00026616,-0.00002594,0.00014918,0.00001392,-0.00
 008960,0.00024909,0.00025047,-0.00002632,0.00035541,0.00067822,0.00049
 150,-0.00021758,-0.00044102,-0.00013396,0.00018450,-0.00026749,-0.0002
 3314,-0.00002260,-0.00002967,-0.00001837,0.00001996,0.00001077,0.00001
 359,0.00000989,0.00001754,0.00000867,-0.01800426,-0.00174813,0.0241010
 7,0.01730958,-0.00000232,-0.00015291,-0.00002400,0.00006832,-0.0000864
 2,-0.00004408,-0.00003639,0.00002909,0.00008204,0.00000335,-0.00011026
 ,-0.00007380,-0.00002211,0.00005057,0.00003230,0.00000780,0.00000515,-
 0.00001652,-0.00002658,0.00001797,-0.00006251,0.00002961,0.00006382,0.
 00008327,-0.00002309,0.00011669,0.00001909,0.00000479,0.00010611,0.000
 01197,0.00002551,-0.00000477,-0.00003064,-0.00001758,-0.00001687,-0.00
 001310,0.00001003,-0.00001486,0.00004987,-0.00000226,0.00001148,-0.000
 02642,-0.00000975,0.00001536,-0.00001994,0.00004457,0.00001545,0.00004
 221,-0.00000719,-0.00000688,-0.00001986,-0.00003964,-0.00001831,-0.000
 03394,0.00004192,0.00011967,0.00005439,0.00000954,-0.00002299,-0.00008
 975,0.00000648,-0.00008013,-0.00000953,-0.00003279,0.00001225,0.000034
 22,0.00000655,-0.00000698,-0.00001696,0.00001897,-0.00000190,-0.000018
 41,0.00005051,0.00005897,0.00004350,-0.00001632,-0.00001828,-0.0000315
 1,-0.00004259,-0.00003690,-0.00001060,-0.00099520,-0.00068855,0.001035
 69,-0.00002440,0.00045526,-0.00019714,0.00020364,-0.00006407,-0.000051
 79,0.00002949,-0.00007219,0.00002749,0.00000035,0.00003319,0.00000989,
 -0.00003504,0.00007293,-0.00004322,0.00000519,0.00002723,0.00002809,-0
 .00000277,-0.00002768,-0.00002072,-0.00000155,-0.00000444,-0.00001500,
 -0.00010119,-0.00006869,0.00017220,-0.00000509,0.00001677,-0.00002679,
 0.00001074,0.00008767,-0.00000435,0.00000229,0.00006524,-0.00000205,-0
 .00000754,-0.00001892,-0.00000369,0.00000565,-0.00001890,0.00000094,0.
 00001225,0.00000742,0.00003330,-0.00000681,-0.00000297,-0.00000983,-0.
 00001058,-0.00000862,-0.00002186,-0.00008029,0.00068693,0.00041972,0.0
 0043718,-0.00092585,-0.00119487,-0.00017174,-0.00032934,0.00014158,0.0
 0002844,0.00004423,0.00003369,-0.00001457,-0.00004410,-0.00003215,-0.0
 0000781,-0.00001464,-0.00000431,0.00000835,-0.00000910,0.00002405,-0.0
 0000310,0.00000375,-0.00001521,-0.00000609,0.00000439,-0.00001384,0.00
 000162,0.00000942,0.00002420,-0.00000042,-0.00000476,-0.00001446,-0.00
 000257,-0.00000418,-0.00000962,-0.00000148,-0.00000819,0.00003545,0.00
 000047,0.00000851,-0.00001409,0.00000541,0.00000198,-0.00002156,-0.000
 03500,0.00029150,0.00017369,-0.00010448,-0.00010764,0.00002172,0.00014
 996,-0.00021292,-0.00018999,0.00026120,-0.00002877,0.00011475,-0.00017
 954,-0.00005713,-0.00005860,-0.00008241,-0.00003368,-0.00006457,-0.000
 01820,0.00003364,0.00001261,0.00001547,-0.00002037,-0.00000521,0.00000
 727,-0.00001714,-0.00000482,0.03200590,-0.48800663,-0.20067614,-0.0282
 3964,0.49093381,0.00000508,-0.00032456,0.00001524,0.00008177,-0.000137
 86,-0.00004026,0.00003108,-0.00000220,0.00008031,0.00000247,-0.0002257
 0,0.00001118,-0.00006223,0.00017776,-0.00000525,0.00001330,-0.00001990
 ,-0.00002680,-0.00002358,-0.00003903,-0.00009578,0.00002959,0.00016934
 ,0.00001405,-0.00005633,0.00026165,-0.00000505,0.00001944,0.00021174,-
 0.00003398,0.00004150,-0.00000538,-0.00001842,-0.00003528,-0.00003195,
 0.00002371,0.00000687,0.00003166,0.00007025,0.00001167,-0.00001521,-0.
 00003747,-0.00000905,-0.00001774,-0.00003971,0.00004886,0.00007052,0.0
 0001001,-0.00000546,-0.00002783,-0.00001399,-0.00004627,-0.00005999,-0
 .00001766,-0.00000951,0.00026489,-0.00010224,-0.00005487,-0.00015151,0
 .00016296,0.00001942,-0.00010823,0.00004098,-0.00007062,0.00005559,0.0
 0000506,0.00002052,-0.00002434,-0.00001176,0.00003934,-0.00003070,-0.0
 0000173,0.00003048,0.00005098,-0.00009318,-0.00002754,-0.00006341,0.00
 007825,-0.00000227,-0.00000280,0.00005907,-0.00082659,0.00117884,0.000
 45176,0.00053004,-0.00083618,-0.00101837,0.00047187,0.00044151,-0.0002
 8662,0.00012707,0.00006531,0.00006648,-0.00007662,0.00000577,-0.000055
 09,-0.00012074,-0.00010056,-0.00006104,0.00000398,0.00004865,0.0000151
 4,-0.00000153,-0.00004630,-0.00001676,0.,-0.00001533,-0.00000622,-0.00
 028101,0.00003373,0.00032493,0.00002002,-0.00004688,-0.00008263,0.0001
 2006,0.00003333,-0.00008090,0.00000097,0.00008437,-0.00007274,-0.00000
 324,-0.00002166,0.00002658,0.00000990,-0.00001209,0.00003070,0.0000101
 6,0.00003541,0.00001164,-0.00000757,-0.00001048,-0.00000564,-0.0000089
 1,-0.00001857,-0.00000074,0.00061695,-0.00022149,-0.00173933,-0.001520
 62,-0.00047726,0.00270088,0.00015029,0.00048786,0.00009790,0.00004113,
 0.00005101,-0.00002127,-0.00001645,-0.00002285,0.00001921,-0.00001091,
 -0.00001931,0.00001008,0.00001559,0.00004058,0.00002644,-0.00000782,-0
 .00002191,-0.00000426,-0.00000832,-0.00002476,-0.00001770,-0.00000111,
 0.00003141,0.00002186,0.00000155,-0.00001770,-0.00001589,-0.00000274,-
 0.00001416,-0.00001090,-0.00001372,0.00004257,0.00005714,0.00000906,-0
 .00001392,-0.00002738,0.00001138,-0.00001986,-0.00002371,-0.00027551,0
 .00030882,-0.00005793,0.00003765,-0.00018938,-0.00006621,0.00006634,-0
 .00027075,0.00004203,0.00038618,0.00021505,-0.00016373,-0.00008949,-0.
 00002794,0.00020959,-0.00012923,-0.00014301,-0.00001663,-0.00003527,0.
 00004934,-0.00002619,0.00003729,-0.00003733,0.00001992,0.00001219,-0.0
 0001704,0.00002230,0.03492296,-0.15794279,-0.09815633,-0.03512108,0.19
 461939,0.11007205,0.00040075,-0.00014429,-0.00005965,0.00074042,-0.000
 58893,-0.00016047,-0.00105521,-0.00029885,0.00064607,0.00189538,-0.000
 58790,-0.00124427,-0.00044840,0.00030435,0.00010825,0.00005700,0.00012
 333,0.00019875,0.00013853,0.00002480,-0.00027740,-0.00117789,0.0006014
 0,0.00096982,-0.00018537,0.00015445,0.00001336,-0.00049853,0.00057825,
 -0.00003049,0.00021459,0.00007651,-0.00000106,0.00004313,-0.00002191,-
 0.00001856,-0.00011784,-0.00003317,0.00003191,0.00008587,0.00002369,0.
 00000008,0.00006621,0.00000692,-0.00001962,-0.00000519,0.00011488,0.00
 010802,0.00001804,-0.00005794,-0.00006000,0.00000649,-0.00006584,-0.00
 006277,-0.00090291,-0.00029364,0.00024575,0.00040260,-0.00034484,-0.00
 007463,-0.00001302,0.00005641,0.00002776,-0.00007566,-0.00022874,-0.00
 018050,0.00004879,0.00006883,0.00005816,-0.00007193,0.00015022,0.00013
 145,-0.00005893,0.00021065,0.00011599,0.00001104,-0.00016286,-0.000115
 31,-0.00002092,-0.00012912,-0.00000451,0.00133108,-0.00082302,-0.00066
 942,0.00423063,0.00004976,-0.00214978,-0.00421276,0.00122957,0.0002665
 0,0.00001993,0.00004550,0.00026334,-0.00001111,0.00003102,-0.00011482,
 -0.00011854,-0.00006301,-0.00028646,-0.00004763,0.00001266,0.00001539,
 0.00002940,-0.00001049,-0.00000432,0.00001918,-0.00000275,-0.00001133,
 0.00089061,-0.00015554,-0.00176847,0.00021355,0.00022991,0.00030506,-0
 .00022429,-0.00027428,0.00034650,-0.00010838,-0.00005251,0.00002866,0.
 00005660,-0.00000544,0.00000098,0.00004851,0.00002997,-0.00001049,-0.0
 0004317,0.00004428,0.00007013,0.00000852,-0.00001317,-0.00001798,0.000
 02221,-0.00002222,-0.00003612,0.00045711,0.00121225,-0.00044314,-0.001
 02995,-0.00146061,0.00054709,-0.00012631,-0.00005327,0.00004914,-0.000
 04163,0.00008829,0.00008629,0.00002298,-0.00012117,-0.00009414,0.00002
 713,-0.00001774,-0.00001166,-0.00005219,0.00001662,0.00006515,0.000018
 70,-0.00000188,-0.00002808,0.00005123,-0.00000152,-0.00003776,-0.00004
 170,0.00000042,0.00001585,0.00002677,0.00000709,-0.00000562,0.00001886
 ,-0.00000097,-0.00000903,-0.00008866,-0.00011181,-0.00010049,0.0000224
 3,0.00004494,0.00006985,0.00003011,0.00005723,0.00005244,0.00012239,-0
 .00342294,-0.00028040,0.00136200,0.00134147,-0.00025461,-0.00160013,0.
 00404645,0.00180649,0.00075808,0.00038487,0.00016995,-0.00030561,-0.00
 017450,0.00005031,-0.00025906,-0.00036918,-0.00028944,-0.00009289,-0.0
 0008633,-0.00002579,0.00009605,0.00003002,0.00003219,0.00003563,0.0000
 4603,0.00000163,-0.21232197,-0.01543723,0.26908620,0.00001127,-0.00426
 345,0.00176819,0.21285325,-0.00014315,-0.00054692,-0.00009070,0.000451
 84,-0.00038290,-0.00025735,-0.00025206,0.00029244,0.00053155,-0.000554
 79,-0.00025406,-0.00036166,0.00009520,-0.00003136,0.00014456,0.0000306
 8,0.00010192,0.00002483,-0.00000726,0.00009753,-0.00009972,0.00039980,
 0.00001419,0.00004137,-0.00004101,0.00035966,0.00005827,0.00004822,0.0
 0036832,0.00006600,0.00009865,-0.00001277,-0.00013733,-0.00009495,-0.0
 0007152,-0.00001595,0.00001357,-0.00006846,0.00012744,0.00000937,0.000
 05656,-0.00006196,-0.00001267,0.00005335,-0.00003290,0.00012083,0.0000
 0743,0.00004693,-0.00002187,-0.00000081,-0.00002610,-0.00013437,-0.000
 03992,-0.00005836,0.00022231,0.00109358,-0.00014798,-0.00034101,-0.000
 26903,0.00041547,0.00004467,-0.00048749,-0.00006824,-0.00010024,-0.000
 02656,0.00013653,0.00001309,0.00000357,-0.00004142,0.00003865,0.000060
 65,-0.00006485,0.00017650,0.00000108,-0.00008367,-0.00017038,-0.000042
 29,0.00008231,-0.00004482,0.00004362,0.00006235,0.00290105,-0.00396790
 ,-0.00003642,-0.00060094,0.00239696,0.00312427,-0.00162746,-0.00156724
 ,0.00005421,0.00001593,-0.00014338,-0.00000482,0.00003326,0.00003583,0
 .00002235,-0.00001255,0.00015968,0.00000421,0.00002526,0.00007545,0.00
 007221,-0.00001343,-0.00008409,-0.00005917,-0.00000782,-0.00001026,-0.
 00003890,0.00045255,-0.00023164,-0.00078060,0.00007719,0.00019515,0.00
 009244,-0.00012139,0.00001145,0.00016447,0.00005834,0.00032921,-0.0000
 8480,-0.00005376,-0.00005298,0.00000194,0.00001773,-0.00005555,0.00002
 654,0.00004630,0.00000685,0.00005595,-0.00001748,-0.00000332,-0.000016
 83,-0.00003753,-0.00001943,-0.00003517,-0.00026431,-0.00206006,0.00056
 110,0.00031772,0.00326364,-0.00001766,0.00008462,0.00002039,0.00000896
 ,0.00010507,0.00007193,0.00001346,-0.00005395,-0.00003288,0.00000082,-
 0.00003483,-0.00003343,-0.00000132,0.00002405,-0.00002966,0.00005041,-
 0.00001297,0.00001041,-0.00003260,-0.00001648,0.00001888,-0.00003446,0
 .00000826,0.00001952,0.00006127,-0.00000072,-0.00000852,-0.00003884,-0
 .00000832,-0.00000783,-0.00002100,-0.00002483,-0.00008513,0.00005342,0
 .00000491,0.00004737,-0.00000085,0.00001881,0.00003786,-0.00004504,-0.
 00256474,0.00118706,0.00118792,0.00041427,-0.00194851,-0.00019197,0.00
 294913,0.00008946,-0.00255450,0.00005006,-0.00019596,-0.00009070,0.000
 01680,0.00005737,0.00007317,-0.00016926,0.00014151,0.00007491,-0.00005
 444,0.00010826,0.00003768,0.00004625,-0.00007110,-0.00002336,0.0000211
 5,-0.00005763,-0.00000582,-0.04950943,-0.04709457,0.05014207,0.0295874
 1,-0.00029992,-0.03945751,0.01857569,0.05001062,-0.00047962,-0.0011476
 5,0.00041258,0.00049196,-0.00081860,-0.00003809,0.00048268,0.00046008,
 0.00047661,-0.00176586,-0.00081242,0.00093549,0.00019192,0.00036287,-0
 .00026150,0.00005300,-0.00009416,-0.00015290,-0.00037185,0.00001206,-0
 .00054668,0.00125589,0.00010445,-0.00078893,-0.00008310,0.00091940,-0.
 00013288,0.00026480,0.00097787,-0.00037027,0.00010192,-0.00000122,-0.0
 0000860,-0.00010567,-0.00004022,0.00014739,0.00011476,0.00007221,0.000
 20633,-0.00002617,-0.00003056,-0.00013146,-0.00008508,-0.00001772,-0.0
 0008925,0.00014247,0.00005380,-0.00008344,-0.00002726,-0.00001222,0.00
 002400,-0.00017367,-0.00009743,0.00000900,0.00024336,-0.00042198,-0.00
 056254,-0.00007045,0.00063981,0.00025173,0.00000019,0.00023038,0.00005
 028,-0.00018995,0.00022445,-0.00002508,0.00005406,-0.00008396,-0.00003
 606,0.00012574,-0.00014693,0.00001039,-0.00001789,-0.00010388,-0.00039
 957,-0.00002754,-0.00004047,0.00041911,0.00010576,0.00013984,0.0001058
 7,-0.00932149,0.00198566,-0.00199815,0.00107137,0.00338405,-0.00692526
 ,0.00442166,-0.00248497,-0.00236130,0.00030225,-0.00001644,-0.00016181
 ,-0.00011917,0.00001901,0.00003988,-0.00028605,0.00000577,0.00018580,0
 .00003700,0.00011045,0.00000897,-0.00001792,-0.00011998,-0.00002645,-0
 .00001235,-0.00003543,-0.00000103,-0.00148145,0.00018945,0.00235835,-0
 .00015717,-0.00021926,-0.00037167,0.00044905,0.00040916,-0.00040647,0.
 00002330,-0.00010912,-0.00015960,0.00000076,-0.00001141,0.00010134,-0.
 00001911,0.00000379,0.00006917,0.00006273,0.00003874,-0.00003987,-0.00
 002144,-0.00000940,0.00000406,-0.00004085,-0.00002818,0.00004201,-0.00
 056632,-0.00175559,0.00078317,0.00099436,0.00259641,-0.00128724,0.0003
 2414,0.00027462,-0.00007447,0.00011496,0.00002637,-0.00016702,-0.00003
 721,0.00008433,0.00017029,-0.00003028,-0.00001908,0.00004605,0.0000851
 8,0.00006176,0.00000907,-0.00003495,-0.00004629,0.00001207,-0.00007323
 ,-0.00004458,-0.00001778,0.00002513,0.00007446,0.00003631,-0.00001239,
 -0.00004896,-0.00003554,-0.00001970,-0.00002908,-0.00001636,0.00000584
 ,0.00016031,0.00021010,0.00000700,-0.00004810,-0.00010771,0.00002671,-
 0.00008756,-0.00007701,0.00071143,0.00043689,-0.00281005,-0.00050342,0
 .00002933,0.00080315,0.00171360,-0.00321012,0.00245535,-0.00030045,-0.
 00023700,-0.00067293,0.00038432,0.00021661,0.00028140,-0.00019448,0.00
 016440,0.00042441,-0.00005451,0.00010609,-0.00011569,0.00008619,-0.000
 09165,0.00009002,0.00000233,-0.00001718,0.00008230,0.25790052,0.005753
 95,-0.33501551,0.01271918,0.00430765,-0.01268221,-0.26918012,-0.012100
 05,0.35556855\\0.01245488,-0.07980364,0.00968090,0.01473719,0.04158333
 ,-0.00939535,0.02452750,0.00393987,-0.00300483,-0.09915888,0.03863090,
 0.03259320,-0.00625382,0.01887083,0.00827196,-0.01559998,-0.00857444,0
 .00653258,-0.00316768,-0.00779039,-0.00154841,0.06372365,-0.02760688,-
 0.02587752,-0.01036190,0.05543036,-0.01181791,0.04114654,-0.02818310,-
 0.01787818,-0.02126458,0.00214581,0.00858631,-0.01099781,-0.01165531,0
 .00931551,0.00969830,0.00811401,0.00162057,-0.01254679,0.00536258,-0.0
 0102983,0.02094844,-0.02009651,0.00578163,0.01903647,-0.00667474,-0.01
 079270,0.00016815,0.01093811,0.01264369,-0.00661873,-0.00950469,-0.004
 34397,0.00005714,-0.02145624,0.00944511,0.00582981,-0.00593051,-0.0102
 3285,-0.00226022,0.02222209,-0.00057108,0.00219331,0.00706012,-0.00942
 389,0.00486839,0.01972710,0.02543508,-0.00620347,-0.02359050,-0.002643
 27,0.00098927,0.00384544,-0.00196237,-0.00230957,-0.00945588,0.0086701
 8,0.00390020,0.00560341,-0.01337909,0.00298952,0.00349021,-0.02355461,
 0.02082028,-0.01390109,0.00981600,-0.01354773,-0.00086227,0.01673493,0
 .00534992,0.00493815,0.00489728,0.00206427,-0.00868405,0.00905585,-0.0
 0602182,0.00352473,-0.00563366,0.00841235,0.02207814,-0.00189098,-0.00
 437137,-0.00791958,-0.00729526,0.00245791,-0.01406557,0.01374348,-0.01
 049371,0.01180121,-0.01240282,0.01400219,0.00397211,0.02371862,-0.0004
 5794,-0.02521052,0.00122143,0.00319427,-0.00496047,-0.00784780,0.01637
 060,0.01369716,0.01446819,-0.01642528,0.00662638,-0.00028698,0.0024945
 8,-0.00877397,0.01190357,0.01148616,0.00595266,0.00658777,-0.00992742,
 0.00343518,-0.01581814,-0.00916960,0.01587227,-0.00437001,-0.00755005,
 -0.01551982,0.00930404,0.01485771,-0.00356210,-0.00273472,0.00365616,0
 .01317748,0.02084752,0.00772484,-0.01578617,-0.01758580,-0.01135907,0.
 01060143,-0.00338475,0.01033983,-0.01444216,0.01196861,0.00078844,0.01
 149343,-0.00970860,-0.01289874,-0.00567703,-0.00250739,-0.00608516,0.0
 1057398,-0.00700401,-0.00832216,-0.01378082,0.00357470,0.01097048,0.00
 792201,0.01236744,0.00835347,0.00357775,0.00119705,-0.00941220,-0.0092
 2640,0.01546117,-0.00713403,0.01108882,-0.00738790,-0.02987980,-0.0147
 3230,-0.00035540,0.01458749,0.02182149,-0.01080965,0.00417247,-0.01212
 098,0.00940657,0.01629898,-0.00804731,0.00387496,-0.00523520,0.0036328
 1,-0.02776025,-0.00838188,0.00495425,0.01026854,-0.01690553,0.00170669
 ,0.01432577,0.01565980,-0.00530674,0.00551824,-0.00306685,0.00390425,-
 0.02988871,0.00777268,0.00811946,-0.01224690,0.00415590,-0.00688539,-0
 .00515441,-0.01071249,0.00138077,0.00917634\\\@


 QUANTUM MECHANICS IS BOHRING -- M.S. GORDON
 Job cpu time:       1 days 11 hours 52 minutes 34.2 seconds.
 Elapsed time:       0 days  1 hours  7 minutes 52.8 seconds.
 File lengths (MBytes):  RWF=   3790 Int=      0 D2E=      0 Chk=     40 Scr=      1
 Normal termination of Gaussian 16 at Sat Sep 17 02:32:09 2022.
