 Entering Gaussian System, Link 0=/shared/gaussian/g16.b01/AVX2/g16/g16
 Input=snap006.S0.com
 Output=snap006.S0.log
 Initial command:
 /shared/gaussian/g16.b01/AVX2/g16/l1.exe "/scratch/giacomo/Gauscr/Gau-15542.inp" -scrdir="/scratch/giacomo/Gauscr/"
 Entering Link 1 = /shared/gaussian/g16.b01/AVX2/g16/l1.exe PID=     15543.
  
 Copyright (c) 1988-2017, Gaussian, Inc.  All Rights Reserved.
  
 This is part of the Gaussian(R) 16 program.  It is based on
 the Gaussian(R) 09 system (copyright 2009, Gaussian, Inc.),
 the Gaussian(R) 03 system (copyright 2003, Gaussian, Inc.),
 the Gaussian(R) 98 system (copyright 1998, Gaussian, Inc.),
 the Gaussian(R) 94 system (copyright 1995, Gaussian, Inc.),
 the Gaussian 92(TM) system (copyright 1992, Gaussian, Inc.),
 the Gaussian 90(TM) system (copyright 1990, Gaussian, Inc.),
 the Gaussian 88(TM) system (copyright 1988, Gaussian, Inc.),
 the Gaussian 86(TM) system (copyright 1986, Carnegie Mellon
 University), and the Gaussian 82(TM) system (copyright 1983,
 Carnegie Mellon University). Gaussian is a federally registered
 trademark of Gaussian, Inc.
  
 This software contains proprietary and confidential information,
 including trade secrets, belonging to Gaussian, Inc.
  
 This software is provided under written license and may be
 used, copied, transmitted, or stored only in accord with that
 written license.
  
 The following legend is applicable only to US Government
 contracts under FAR:
  
                    RESTRICTED RIGHTS LEGEND
  
 Use, reproduction and disclosure by the US Government is
 subject to restrictions as set forth in subparagraphs (a)
 and (c) of the Commercial Computer Software - Restricted
 Rights clause in FAR 52.227-19.
  
 Gaussian, Inc.
 340 Quinnipiac St., Bldg. 40, Wallingford CT 06492
  
  
 ---------------------------------------------------------------
 Warning -- This program may not be used in any manner that
 competes with the business of Gaussian, Inc. or will provide
 assistance to any competitor of Gaussian, Inc.  The licensee
 of this program is prohibited from giving any competitor of
 Gaussian, Inc. access to this program.  By using this program,
 the user acknowledges that Gaussian, Inc. is engaged in the
 business of creating and licensing software in the field of
 computational chemistry and represents and warrants to the
 licensee that it is not a competitor of Gaussian, Inc. and that
 it will not use this program in any manner prohibited above.
 ---------------------------------------------------------------
  

 Cite this work as:
 Gaussian 16, Revision B.01,
 M. J. Frisch, G. W. Trucks, H. B. Schlegel, G. E. Scuseria, 
 M. A. Robb, J. R. Cheeseman, G. Scalmani, V. Barone, 
 G. A. Petersson, H. Nakatsuji, X. Li, M. Caricato, A. V. Marenich, 
 J. Bloino, B. G. Janesko, R. Gomperts, B. Mennucci, H. P. Hratchian, 
 J. V. Ortiz, A. F. Izmaylov, J. L. Sonnenberg, D. Williams-Young, 
 F. Ding, F. Lipparini, F. Egidi, J. Goings, B. Peng, A. Petrone, 
 T. Henderson, D. Ranasinghe, V. G. Zakrzewski, J. Gao, N. Rega, 
 G. Zheng, W. Liang, M. Hada, M. Ehara, K. Toyota, R. Fukuda, 
 J. Hasegawa, M. Ishida, T. Nakajima, Y. Honda, O. Kitao, H. Nakai, 
 T. Vreven, K. Throssell, J. A. Montgomery, Jr., J. E. Peralta, 
 F. Ogliaro, M. J. Bearpark, J. J. Heyd, E. N. Brothers, K. N. Kudin, 
 V. N. Staroverov, T. A. Keith, R. Kobayashi, J. Normand, 
 K. Raghavachari, A. P. Rendell, J. C. Burant, S. S. Iyengar, 
 J. Tomasi, M. Cossi, J. M. Millam, M. Klene, C. Adamo, R. Cammi, 
 J. W. Ochterski, R. L. Martin, K. Morokuma, O. Farkas, 
 J. B. Foresman, and D. J. Fox, Gaussian, Inc., Wallingford CT, 2016.
 
 ******************************************
 Gaussian 16:  ES64L-G16RevB.01 20-Dec-2017
                16-Sep-2022 
 ******************************************
 %Nproc=32
 Will use up to   32 processors via shared memory.
 %Mem=120Gb
 %chk=temp.chk
 -------------------------------------------
 #p cam-b3lyp/6-31+G(d,p) nosymm charge Freq
 -------------------------------------------
 1/10=4,18=10,28=-2,30=1,38=1,125=101/1,3;
 2/12=2,15=1,17=6,18=5,40=1/2;
 3/5=1,6=6,7=111,11=2,25=1,30=1,71=2,74=-40,140=1/1,2,3;
 4//1;
 5/5=2,38=5,98=1/2;
 8/6=4,10=90,11=11/1;
 11/6=1,8=1,9=11,15=111,16=1,31=1/1,2,10;
 10/6=1,31=1/2;
 6/7=2,8=2,9=2,10=2,28=1/1;
 7/8=1,10=1,16=-2,25=1,30=1/1,2,3,16;
 1/10=4,18=10,28=-2,30=1/3;
 99//99;
 Leave Link    1 at Fri Sep 16 23:55:41 2022, MaxMem= 16106127360 cpu:               1.7 elap:               0.1
 (Enter /shared/gaussian/g16.b01/AVX2/g16/l101.exe)
 ------------------------------------------
 Calculation for S0 with freq for abs spect
 ------------------------------------------
 Symbolic Z-matrix:
 Charge =  0 Multiplicity = 1
 C                     17.41818   16.23624   15.5163 
 C                     16.45893   15.51859   17.65703 
 C                     15.7602   16.58255   17.81809 
 C                     15.89211   17.65681   16.80146 
 N                     16.66774   17.40252   15.70135 
 H                     16.53424   14.6857   18.32542 
 H                     15.02076   16.80929   18.58667 
 O                     15.27461   18.7242   16.80598 
 O                     18.08709   16.02949   14.52118 
 N                     17.24501   15.32813   16.55401 
 H                     17.59237   14.38365   16.44035 
 H                     16.76922   18.10948   14.97059 
 O                     17.95686   15.14314   21.16604 
 H                     18.50403   14.92326   21.92002 
 H                     17.60682   14.30275   20.87031 
 O                     12.38085   17.41875   19.02841 
 H                     12.58652   18.25894   19.43832 
 H                     11.48952   17.22268   19.31711 
 O                     19.56249   14.35646   12.52952 
 H                     20.28271   14.95078   12.73999 
 H                     18.78592   14.78256   12.89229 
 O                     13.49122   20.33972   16.35702 
 H                     13.66946   20.48495   15.42782 
 H                     14.1245   19.67244   16.62143 
 O                     15.70523   16.90192   21.67995 
 H                     16.16486   17.73983   21.6263 
 H                     16.31493   16.26903   21.30054 
 O                     17.86706   20.26783   16.57362 
 H                     17.11135   19.68079   16.55084 
 H                     17.82397   20.74673   15.74594 
 O                     18.04072   12.11545   18.12874 
 H                     17.97449   11.16549   18.03173 
 H                     18.34729   12.423    17.27571 
 O                     14.05381   15.17562   20.54577 
 H                     13.28319   15.25279   21.1083 
 H                     14.50785   16.01246   20.64461 
 O                     20.95169   14.99676   15.10319 
 H                     19.99955   15.04725   15.01879 
 H                     21.13367   15.34066   15.97774 
 O                     13.93744   12.39475   16.09235 
 H                     14.48304   11.68311   16.42721 
 H                     14.03163   13.09409   16.73912 
 O                     13.18161   15.25696   17.0315 
 H                     13.04676   16.04596   17.5564 
 H                     12.97977   14.53519   17.62693 
 O                     13.12494   13.06906   18.87908 
 H                     13.04208   12.3386   19.4921 
 H                     13.77871   13.64365   19.27739 
 O                     16.30761   18.35553   12.60644 
 H                     15.63875   19.00157   12.83336 
 H                     15.81244   17.58338   12.33289 
 O                     15.31687   19.99193   19.55142 
 H                     15.2188   19.86516   18.60774 
 H                     16.1945   19.66408   19.74768 
 O                     18.3147   12.70839   15.53387 
 H                     17.95475   12.52045   14.66707 
 H                     19.14931   12.24013   15.55383 
 O                     20.69954   19.95403   16.83273 
 H                     19.75584   20.04568   16.96408 
 H                     20.81328   19.98035   15.88266 
 O                     11.52084   17.66786   16.05881 
 H                     11.69524   18.19989   16.8352 
 H                     11.86559   16.80236   16.2786 
 O                     14.34938   15.33048   14.27277 
 H                     14.12126   15.1558   15.18582 
 H                     14.79724   14.53637   13.98114 
 O                     20.52333   15.67754   17.9209 
 H                     20.84687   14.86872   18.31759 
 H                     21.27907   16.26498   17.92319 
 O                     15.50777   13.30192   13.24425 
 H                     14.6925   12.80456   13.17944 
 H                     16.19056   12.63505   13.31712 
 O                     18.64361   16.84581   19.31061 
 H                     18.34606   16.16351   19.91242 
 H                     19.30566   16.4161   18.76906 
 O                     19.22664   18.34612   12.6254 
 H                     19.73175   17.70245   12.12864 
 H                     18.46322   17.86156   12.93945 
 
 ITRead=  0  0  0  0  0  0  0  0  0  0  0  0  0  0  0  0  0  0  0  0
 ITRead=  0  0  0  0  0  0  0  0  0  0  0  0  0  0  0  0  0  0  0  0
 ITRead=  0  0  0  0  0  0  0  0  0  0  0  0  0  0  0  0  0  0  0  0
 ITRead=  0  0  0  0  0  0  0  0  0  0  0  0  0  0  0  0  0  0
 MicOpt= -1 -1 -1 -1 -1 -1 -1 -1 -1 -1 -1 -1 -1 -1 -1 -1 -1 -1 -1 -1
 MicOpt= -1 -1 -1 -1 -1 -1 -1 -1 -1 -1 -1 -1 -1 -1 -1 -1 -1 -1 -1 -1
 MicOpt= -1 -1 -1 -1 -1 -1 -1 -1 -1 -1 -1 -1 -1 -1 -1 -1 -1 -1 -1 -1
 MicOpt= -1 -1 -1 -1 -1 -1 -1 -1 -1 -1 -1 -1 -1 -1 -1 -1 -1 -1
 NAtoms=     78 NQM=       78 NQMF=       0 NMMI=      0 NMMIF=      0
                NMic=       0 NMicF=      0.
                    Isotopes and Nuclear Properties:
 (Nuclear quadrupole moments (NQMom) in fm**2, nuclear magnetic moments (NMagM)
  in nuclear magnetons)

  Atom         1           2           3           4           5           6           7           8           9          10
 IAtWgt=          12          12          12          12          14           1           1          16          16          14
 AtmWgt=  12.0000000  12.0000000  12.0000000  12.0000000  14.0030740   1.0078250   1.0078250  15.9949146  15.9949146  14.0030740
 NucSpn=           0           0           0           0           2           1           1           0           0           2
 AtZEff=  -0.0000000  -0.0000000  -0.0000000  -0.0000000  -0.0000000  -0.0000000  -0.0000000  -0.0000000  -0.0000000  -0.0000000
 NQMom=    0.0000000   0.0000000   0.0000000   0.0000000   2.0440000   0.0000000   0.0000000   0.0000000   0.0000000   2.0440000
 NMagM=    0.0000000   0.0000000   0.0000000   0.0000000   0.4037610   2.7928460   2.7928460   0.0000000   0.0000000   0.4037610
 AtZNuc=   6.0000000   6.0000000   6.0000000   6.0000000   7.0000000   1.0000000   1.0000000   8.0000000   8.0000000   7.0000000

  Atom        11          12          13          14          15          16          17          18          19          20
 IAtWgt=           1           1          16           1           1          16           1           1          16           1
 AtmWgt=   1.0078250   1.0078250  15.9949146   1.0078250   1.0078250  15.9949146   1.0078250   1.0078250  15.9949146   1.0078250
 NucSpn=           1           1           0           1           1           0           1           1           0           1
 AtZEff=  -0.0000000  -0.0000000  -0.0000000  -0.0000000  -0.0000000  -0.0000000  -0.0000000  -0.0000000  -0.0000000  -0.0000000
 NQMom=    0.0000000   0.0000000   0.0000000   0.0000000   0.0000000   0.0000000   0.0000000   0.0000000   0.0000000   0.0000000
 NMagM=    2.7928460   2.7928460   0.0000000   2.7928460   2.7928460   0.0000000   2.7928460   2.7928460   0.0000000   2.7928460
 AtZNuc=   1.0000000   1.0000000   8.0000000   1.0000000   1.0000000   8.0000000   1.0000000   1.0000000   8.0000000   1.0000000

  Atom        21          22          23          24          25          26          27          28          29          30
 IAtWgt=           1          16           1           1          16           1           1          16           1           1
 AtmWgt=   1.0078250  15.9949146   1.0078250   1.0078250  15.9949146   1.0078250   1.0078250  15.9949146   1.0078250   1.0078250
 NucSpn=           1           0           1           1           0           1           1           0           1           1
 AtZEff=  -0.0000000  -0.0000000  -0.0000000  -0.0000000  -0.0000000  -0.0000000  -0.0000000  -0.0000000  -0.0000000  -0.0000000
 NQMom=    0.0000000   0.0000000   0.0000000   0.0000000   0.0000000   0.0000000   0.0000000   0.0000000   0.0000000   0.0000000
 NMagM=    2.7928460   0.0000000   2.7928460   2.7928460   0.0000000   2.7928460   2.7928460   0.0000000   2.7928460   2.7928460
 AtZNuc=   1.0000000   8.0000000   1.0000000   1.0000000   8.0000000   1.0000000   1.0000000   8.0000000   1.0000000   1.0000000

  Atom        31          32          33          34          35          36          37          38          39          40
 IAtWgt=          16           1           1          16           1           1          16           1           1          16
 AtmWgt=  15.9949146   1.0078250   1.0078250  15.9949146   1.0078250   1.0078250  15.9949146   1.0078250   1.0078250  15.9949146
 NucSpn=           0           1           1           0           1           1           0           1           1           0
 AtZEff=  -0.0000000  -0.0000000  -0.0000000  -0.0000000  -0.0000000  -0.0000000  -0.0000000  -0.0000000  -0.0000000  -0.0000000
 NQMom=    0.0000000   0.0000000   0.0000000   0.0000000   0.0000000   0.0000000   0.0000000   0.0000000   0.0000000   0.0000000
 NMagM=    0.0000000   2.7928460   2.7928460   0.0000000   2.7928460   2.7928460   0.0000000   2.7928460   2.7928460   0.0000000
 AtZNuc=   8.0000000   1.0000000   1.0000000   8.0000000   1.0000000   1.0000000   8.0000000   1.0000000   1.0000000   8.0000000

  Atom        41          42          43          44          45          46          47          48          49          50
 IAtWgt=           1           1          16           1           1          16           1           1          16           1
 AtmWgt=   1.0078250   1.0078250  15.9949146   1.0078250   1.0078250  15.9949146   1.0078250   1.0078250  15.9949146   1.0078250
 NucSpn=           1           1           0           1           1           0           1           1           0           1
 AtZEff=  -0.0000000  -0.0000000  -0.0000000  -0.0000000  -0.0000000  -0.0000000  -0.0000000  -0.0000000  -0.0000000  -0.0000000
 NQMom=    0.0000000   0.0000000   0.0000000   0.0000000   0.0000000   0.0000000   0.0000000   0.0000000   0.0000000   0.0000000
 NMagM=    2.7928460   2.7928460   0.0000000   2.7928460   2.7928460   0.0000000   2.7928460   2.7928460   0.0000000   2.7928460
 AtZNuc=   1.0000000   1.0000000   8.0000000   1.0000000   1.0000000   8.0000000   1.0000000   1.0000000   8.0000000   1.0000000

  Atom        51          52          53          54          55          56          57          58          59          60
 IAtWgt=           1          16           1           1          16           1           1          16           1           1
 AtmWgt=   1.0078250  15.9949146   1.0078250   1.0078250  15.9949146   1.0078250   1.0078250  15.9949146   1.0078250   1.0078250
 NucSpn=           1           0           1           1           0           1           1           0           1           1
 AtZEff=  -0.0000000  -0.0000000  -0.0000000  -0.0000000  -0.0000000  -0.0000000  -0.0000000  -0.0000000  -0.0000000  -0.0000000
 NQMom=    0.0000000   0.0000000   0.0000000   0.0000000   0.0000000   0.0000000   0.0000000   0.0000000   0.0000000   0.0000000
 NMagM=    2.7928460   0.0000000   2.7928460   2.7928460   0.0000000   2.7928460   2.7928460   0.0000000   2.7928460   2.7928460
 AtZNuc=   1.0000000   8.0000000   1.0000000   1.0000000   8.0000000   1.0000000   1.0000000   8.0000000   1.0000000   1.0000000

  Atom        61          62          63          64          65          66          67          68          69          70
 IAtWgt=          16           1           1          16           1           1          16           1           1          16
 AtmWgt=  15.9949146   1.0078250   1.0078250  15.9949146   1.0078250   1.0078250  15.9949146   1.0078250   1.0078250  15.9949146
 NucSpn=           0           1           1           0           1           1           0           1           1           0
 AtZEff=  -0.0000000  -0.0000000  -0.0000000  -0.0000000  -0.0000000  -0.0000000  -0.0000000  -0.0000000  -0.0000000  -0.0000000
 NQMom=    0.0000000   0.0000000   0.0000000   0.0000000   0.0000000   0.0000000   0.0000000   0.0000000   0.0000000   0.0000000
 NMagM=    0.0000000   2.7928460   2.7928460   0.0000000   2.7928460   2.7928460   0.0000000   2.7928460   2.7928460   0.0000000
 AtZNuc=   8.0000000   1.0000000   1.0000000   8.0000000   1.0000000   1.0000000   8.0000000   1.0000000   1.0000000   8.0000000

  Atom        71          72          73          74          75          76          77          78
 IAtWgt=           1           1          16           1           1          16           1           1
 AtmWgt=   1.0078250   1.0078250  15.9949146   1.0078250   1.0078250  15.9949146   1.0078250   1.0078250
 NucSpn=           1           1           0           1           1           0           1           1
 AtZEff=  -0.0000000  -0.0000000  -0.0000000  -0.0000000  -0.0000000  -0.0000000  -0.0000000  -0.0000000
 NQMom=    0.0000000   0.0000000   0.0000000   0.0000000   0.0000000   0.0000000   0.0000000   0.0000000
 NMagM=    2.7928460   2.7928460   0.0000000   2.7928460   2.7928460   0.0000000   2.7928460   2.7928460
 AtZNuc=   1.0000000   1.0000000   8.0000000   1.0000000   1.0000000   8.0000000   1.0000000   1.0000000
 Background charge distribution read from input stream:
 Point Charges:
 XYZ=   18.6432   19.9869    6.6177 Q=   -0.8340 A=    0.0000 R=    0.0000 C=    0.0000
 XYZ=   18.4729   19.2518    6.0288 Q=    0.4170 A=    0.0000 R=    0.0000 C=    0.0000
 XYZ=   19.1256   19.6016    7.3492 Q=    0.4170 A=    0.0000 R=    0.0000 C=    0.0000
 XYZ=   15.8898    7.6561   13.3026 Q=   -0.8340 A=    0.0000 R=    0.0000 C=    0.0000
 XYZ=   16.6712    7.1690   13.0412 Q=    0.4170 A=    0.0000 R=    0.0000 C=    0.0000
 XYZ=   15.3945    7.0422   13.8448 Q=    0.4170 A=    0.0000 R=    0.0000 C=    0.0000
 XYZ=   10.5578   25.6818   22.4545 Q=   -0.8340 A=    0.0000 R=    0.0000 C=    0.0000
 XYZ=   11.1409   26.1796   23.0275 Q=    0.4170 A=    0.0000 R=    0.0000 C=    0.0000
 XYZ=   10.3541   26.2834   21.7383 Q=    0.4170 A=    0.0000 R=    0.0000 C=    0.0000
 XYZ=   19.2641    7.2086   26.8489 Q=   -0.8340 A=    0.0000 R=    0.0000 C=    0.0000
 XYZ=   18.3942    7.1547   27.2445 Q=    0.4170 A=    0.0000 R=    0.0000 C=    0.0000
 XYZ=   19.8426    7.4485   27.5728 Q=    0.4170 A=    0.0000 R=    0.0000 C=    0.0000
 XYZ=   23.0459   22.9968   14.4043 Q=   -0.8340 A=    0.0000 R=    0.0000 C=    0.0000
 XYZ=   23.7703   22.4978   14.0269 Q=    0.4170 A=    0.0000 R=    0.0000 C=    0.0000
 XYZ=   23.4535   23.5371   15.0811 Q=    0.4170 A=    0.0000 R=    0.0000 C=    0.0000
 XYZ=    9.2806   15.0242    5.2362 Q=   -0.8340 A=    0.0000 R=    0.0000 C=    0.0000
 XYZ=    9.4030   15.6474    4.5200 Q=    0.4170 A=    0.0000 R=    0.0000 C=    0.0000
 XYZ=    9.8746   15.3278    5.9226 Q=    0.4170 A=    0.0000 R=    0.0000 C=    0.0000
 XYZ=   22.6335   10.9802   24.5446 Q=   -0.8340 A=    0.0000 R=    0.0000 C=    0.0000
 XYZ=   23.2137   10.3364   24.1382 Q=    0.4170 A=    0.0000 R=    0.0000 C=    0.0000
 XYZ=   22.2047   11.4156   23.8079 Q=    0.4170 A=    0.0000 R=    0.0000 C=    0.0000
 XYZ=    5.4716   21.4223   23.8692 Q=   -0.8340 A=    0.0000 R=    0.0000 C=    0.0000
 XYZ=    5.3093   21.1851   22.9562 Q=    0.4170 A=    0.0000 R=    0.0000 C=    0.0000
 XYZ=    6.1505   20.8126   24.1585 Q=    0.4170 A=    0.0000 R=    0.0000 C=    0.0000
 XYZ=   19.5779   10.4579    7.1410 Q=   -0.8340 A=    0.0000 R=    0.0000 C=    0.0000
 XYZ=   19.5986    9.5280    6.9150 Q=    0.4170 A=    0.0000 R=    0.0000 C=    0.0000
 XYZ=   18.6849   10.7349    6.9361 Q=    0.4170 A=    0.0000 R=    0.0000 C=    0.0000
 XYZ=   22.1868   17.7100   17.7184 Q=   -0.8340 A=    0.0000 R=    0.0000 C=    0.0000
 XYZ=   21.6245   18.2884   17.2031 Q=    0.4170 A=    0.0000 R=    0.0000 C=    0.0000
 XYZ=   22.8157   18.2975   18.1375 Q=    0.4170 A=    0.0000 R=    0.0000 C=    0.0000
 XYZ=   16.3672   17.0865   31.3925 Q=   -0.8340 A=    0.0000 R=    0.0000 C=    0.0000
 XYZ=   16.4964   16.1412   31.3159 Q=    0.4170 A=    0.0000 R=    0.0000 C=    0.0000
 XYZ=   15.5034   17.1790   31.7944 Q=    0.4170 A=    0.0000 R=    0.0000 C=    0.0000
 XYZ=   13.5851   15.6836   25.1017 Q=   -0.8340 A=    0.0000 R=    0.0000 C=    0.0000
 XYZ=   13.6761   15.3775   24.1993 Q=    0.4170 A=    0.0000 R=    0.0000 C=    0.0000
 XYZ=   14.3726   16.2046   25.2589 Q=    0.4170 A=    0.0000 R=    0.0000 C=    0.0000
 XYZ=    7.7476    6.5345   14.1886 Q=   -0.8340 A=    0.0000 R=    0.0000 C=    0.0000
 XYZ=    6.8682    6.1834   14.3288 Q=    0.4170 A=    0.0000 R=    0.0000 C=    0.0000
 XYZ=    8.1888    5.8716   13.6574 Q=    0.4170 A=    0.0000 R=    0.0000 C=    0.0000
 XYZ=    6.6999   20.6951   20.8447 Q=   -0.8340 A=    0.0000 R=    0.0000 C=    0.0000
 XYZ=    7.4638   20.2388   20.4917 Q=    0.4170 A=    0.0000 R=    0.0000 C=    0.0000
 XYZ=    6.1732   20.0050   21.2478 Q=    0.4170 A=    0.0000 R=    0.0000 C=    0.0000
 XYZ=   26.8998   12.8201   27.9419 Q=   -0.8340 A=    0.0000 R=    0.0000 C=    0.0000
 XYZ=   27.1264   13.6911   27.6158 Q=    0.4170 A=    0.0000 R=    0.0000 C=    0.0000
 XYZ=   26.1602   12.5458   27.3998 Q=    0.4170 A=    0.0000 R=    0.0000 C=    0.0000
 XYZ=   21.4274   12.3635   12.1837 Q=   -0.8340 A=    0.0000 R=    0.0000 C=    0.0000
 XYZ=   20.6207   12.8127   12.4360 Q=    0.4170 A=    0.0000 R=    0.0000 C=    0.0000
 XYZ=   21.7686   12.8765   11.4510 Q=    0.4170 A=    0.0000 R=    0.0000 C=    0.0000
 XYZ=   16.1920   21.5357   14.5787 Q=   -0.8340 A=    0.0000 R=    0.0000 C=    0.0000
 XYZ=   15.7961   22.0562   15.2777 Q=    0.4170 A=    0.0000 R=    0.0000 C=    0.0000
 XYZ=   15.4741   20.9989   14.2432 Q=    0.4170 A=    0.0000 R=    0.0000 C=    0.0000
 XYZ=   14.9375   27.3928   18.3165 Q=   -0.8340 A=    0.0000 R=    0.0000 C=    0.0000
 XYZ=   14.4419   26.6769   17.9190 Q=    0.4170 A=    0.0000 R=    0.0000 C=    0.0000
 XYZ=   14.2986   27.8545   18.8594 Q=    0.4170 A=    0.0000 R=    0.0000 C=    0.0000
 XYZ=   23.5951   23.8797   10.7095 Q=   -0.8340 A=    0.0000 R=    0.0000 C=    0.0000
 XYZ=   24.5409   23.8053   10.8366 Q=    0.4170 A=    0.0000 R=    0.0000 C=    0.0000
 XYZ=   23.4562   23.6376    9.7939 Q=    0.4170 A=    0.0000 R=    0.0000 C=    0.0000
 XYZ=    5.1895    7.6120   16.6296 Q=   -0.8340 A=    0.0000 R=    0.0000 C=    0.0000
 XYZ=    5.2606    6.8299   16.0823 Q=    0.4170 A=    0.0000 R=    0.0000 C=    0.0000
 XYZ=    4.5729    7.3668   17.3195 Q=    0.4170 A=    0.0000 R=    0.0000 C=    0.0000
 XYZ=   18.1102   30.4035   14.4148 Q=   -0.8340 A=    0.0000 R=    0.0000 C=    0.0000
 XYZ=   18.4099   30.2238   13.5237 Q=    0.4170 A=    0.0000 R=    0.0000 C=    0.0000
 XYZ=   18.1757   29.5611   14.8646 Q=    0.4170 A=    0.0000 R=    0.0000 C=    0.0000
 XYZ=   12.6419   23.0961   14.2241 Q=   -0.8340 A=    0.0000 R=    0.0000 C=    0.0000
 XYZ=   12.9384   23.3349   15.1023 Q=    0.4170 A=    0.0000 R=    0.0000 C=    0.0000
 XYZ=   11.7894   23.5220   14.1345 Q=    0.4170 A=    0.0000 R=    0.0000 C=    0.0000
 XYZ=   17.3606   25.3513    6.5289 Q=   -0.8340 A=    0.0000 R=    0.0000 C=    0.0000
 XYZ=   17.5366   24.4121    6.5852 Q=    0.4170 A=    0.0000 R=    0.0000 C=    0.0000
 XYZ=   17.5103   25.6772    7.4164 Q=    0.4170 A=    0.0000 R=    0.0000 C=    0.0000
 XYZ=    9.7589   12.9428    9.3933 Q=   -0.8340 A=    0.0000 R=    0.0000 C=    0.0000
 XYZ=   10.5585   13.0931    9.8976 Q=    0.4170 A=    0.0000 R=    0.0000 C=    0.0000
 XYZ=    9.5471   12.0222    9.5481 Q=    0.4170 A=    0.0000 R=    0.0000 C=    0.0000
 XYZ=   15.6834   29.2777   15.9510 Q=   -0.8340 A=    0.0000 R=    0.0000 C=    0.0000
 XYZ=   15.8830   28.4733   15.4720 Q=    0.4170 A=    0.0000 R=    0.0000 C=    0.0000
 XYZ=   15.0086   29.0215   16.5796 Q=    0.4170 A=    0.0000 R=    0.0000 C=    0.0000
 XYZ=    8.1279    9.6397   25.5591 Q=   -0.8340 A=    0.0000 R=    0.0000 C=    0.0000
 XYZ=    7.7444    9.2827   26.3601 Q=    0.4170 A=    0.0000 R=    0.0000 C=    0.0000
 XYZ=    8.3945   10.5281   25.7958 Q=    0.4170 A=    0.0000 R=    0.0000 C=    0.0000
 XYZ=    9.4079   22.7313   16.4760 Q=   -0.8340 A=    0.0000 R=    0.0000 C=    0.0000
 XYZ=    9.0280   22.5346   15.6197 Q=    0.4170 A=    0.0000 R=    0.0000 C=    0.0000
 XYZ=   10.1802   23.2617   16.2799 Q=    0.4170 A=    0.0000 R=    0.0000 C=    0.0000
 XYZ=   16.4441   29.4668   19.7397 Q=   -0.8340 A=    0.0000 R=    0.0000 C=    0.0000
 XYZ=   16.1372   28.8280   19.0962 Q=    0.4170 A=    0.0000 R=    0.0000 C=    0.0000
 XYZ=   16.5281   28.9676   20.5521 Q=    0.4170 A=    0.0000 R=    0.0000 C=    0.0000
 XYZ=   11.1462   13.5747    3.8231 Q=   -0.8340 A=    0.0000 R=    0.0000 C=    0.0000
 XYZ=   11.6204   13.2278    4.5788 Q=    0.4170 A=    0.0000 R=    0.0000 C=    0.0000
 XYZ=   10.4712   14.1382    4.2015 Q=    0.4170 A=    0.0000 R=    0.0000 C=    0.0000
 XYZ=   17.2361   22.9392   12.2842 Q=   -0.8340 A=    0.0000 R=    0.0000 C=    0.0000
 XYZ=   17.2274   22.2687   12.9672 Q=    0.4170 A=    0.0000 R=    0.0000 C=    0.0000
 XYZ=   16.8426   23.7078   12.6973 Q=    0.4170 A=    0.0000 R=    0.0000 C=    0.0000
 XYZ=   12.2042    5.7305   12.6152 Q=   -0.8340 A=    0.0000 R=    0.0000 C=    0.0000
 XYZ=   12.9486    5.5932   12.0293 Q=    0.4170 A=    0.0000 R=    0.0000 C=    0.0000
 XYZ=   12.1380    4.9162   13.1140 Q=    0.4170 A=    0.0000 R=    0.0000 C=    0.0000
 XYZ=   22.3973   11.4911    6.9628 Q=   -0.8340 A=    0.0000 R=    0.0000 C=    0.0000
 XYZ=   22.6775   10.7436    7.4909 Q=    0.4170 A=    0.0000 R=    0.0000 C=    0.0000
 XYZ=   21.4428   11.4227    6.9375 Q=    0.4170 A=    0.0000 R=    0.0000 C=    0.0000
 XYZ=   11.1917   20.2518   18.0715 Q=   -0.8340 A=    0.0000 R=    0.0000 C=    0.0000
 XYZ=   11.6876   20.0914   18.8743 Q=    0.4170 A=    0.0000 R=    0.0000 C=    0.0000
 XYZ=   11.8404   20.5844   17.4511 Q=    0.4170 A=    0.0000 R=    0.0000 C=    0.0000
 XYZ=   18.5533   15.7681    2.3398 Q=   -0.8340 A=    0.0000 R=    0.0000 C=    0.0000
 XYZ=   18.6147   15.1633    1.6005 Q=    0.4170 A=    0.0000 R=    0.0000 C=    0.0000
 XYZ=   18.9027   15.2756    3.0825 Q=    0.4170 A=    0.0000 R=    0.0000 C=    0.0000
 XYZ=   11.3222   26.8864    6.6281 Q=   -0.8340 A=    0.0000 R=    0.0000 C=    0.0000
 XYZ=   10.6710   27.3537    6.1049 Q=    0.4170 A=    0.0000 R=    0.0000 C=    0.0000
 XYZ=   10.8096   26.2842    7.1674 Q=    0.4170 A=    0.0000 R=    0.0000 C=    0.0000
 XYZ=   26.9023   13.4638   12.1432 Q=   -0.8340 A=    0.0000 R=    0.0000 C=    0.0000
 XYZ=   27.6107   13.7541   12.7178 Q=    0.4170 A=    0.0000 R=    0.0000 C=    0.0000
 XYZ=   26.6020   14.2628   11.7100 Q=    0.4170 A=    0.0000 R=    0.0000 C=    0.0000
 XYZ=   26.3528   10.9372   22.3056 Q=   -0.8340 A=    0.0000 R=    0.0000 C=    0.0000
 XYZ=   26.3109   11.8879   22.2023 Q=    0.4170 A=    0.0000 R=    0.0000 C=    0.0000
 XYZ=   26.2836   10.5956   21.4141 Q=    0.4170 A=    0.0000 R=    0.0000 C=    0.0000
 XYZ=   11.7422    8.2459   10.4580 Q=   -0.8340 A=    0.0000 R=    0.0000 C=    0.0000
 XYZ=   12.1883    7.4160   10.6266 Q=    0.4170 A=    0.0000 R=    0.0000 C=    0.0000
 XYZ=   11.4357    8.1742    9.5540 Q=    0.4170 A=    0.0000 R=    0.0000 C=    0.0000
 XYZ=   12.1052   16.6078   27.0935 Q=   -0.8340 A=    0.0000 R=    0.0000 C=    0.0000
 XYZ=   12.5024   15.8574   27.5354 Q=    0.4170 A=    0.0000 R=    0.0000 C=    0.0000
 XYZ=   12.3592   16.5080   26.1760 Q=    0.4170 A=    0.0000 R=    0.0000 C=    0.0000
 XYZ=   25.7520   21.7717   12.7249 Q=   -0.8340 A=    0.0000 R=    0.0000 C=    0.0000
 XYZ=   26.3768   22.4089   12.3787 Q=    0.4170 A=    0.0000 R=    0.0000 C=    0.0000
 XYZ=   25.9731   20.9531   12.2809 Q=    0.4170 A=    0.0000 R=    0.0000 C=    0.0000
 XYZ=    9.5441    5.2792   12.3281 Q=   -0.8340 A=    0.0000 R=    0.0000 C=    0.0000
 XYZ=    9.2331    5.8448   11.6214 Q=    0.4170 A=    0.0000 R=    0.0000 C=    0.0000
 XYZ=   10.4543    5.5428   12.4635 Q=    0.4170 A=    0.0000 R=    0.0000 C=    0.0000
 XYZ=   20.9005   19.9541   14.0799 Q=   -0.8340 A=    0.0000 R=    0.0000 C=    0.0000
 XYZ=   21.0875   20.7126   13.5268 Q=    0.4170 A=    0.0000 R=    0.0000 C=    0.0000
 XYZ=   20.2656   19.4423   13.5786 Q=    0.4170 A=    0.0000 R=    0.0000 C=    0.0000
 XYZ=    6.9624    7.4625   24.1722 Q=   -0.8340 A=    0.0000 R=    0.0000 C=    0.0000
 XYZ=    7.3093    8.3043   24.4674 Q=    0.4170 A=    0.0000 R=    0.0000 C=    0.0000
 XYZ=    6.7710    7.5941   23.2436 Q=    0.4170 A=    0.0000 R=    0.0000 C=    0.0000
 XYZ=   22.8351    9.8526   29.5577 Q=   -0.8340 A=    0.0000 R=    0.0000 C=    0.0000
 XYZ=   23.6965   10.2495   29.4287 Q=    0.4170 A=    0.0000 R=    0.0000 C=    0.0000
 XYZ=   22.4732    9.7722   28.6752 Q=    0.4170 A=    0.0000 R=    0.0000 C=    0.0000
 XYZ=    7.5197   14.0266   14.0504 Q=   -0.8340 A=    0.0000 R=    0.0000 C=    0.0000
 XYZ=    8.0594   14.8098   13.9431 Q=    0.4170 A=    0.0000 R=    0.0000 C=    0.0000
 XYZ=    7.0024   13.9795   13.2464 Q=    0.4170 A=    0.0000 R=    0.0000 C=    0.0000
 XYZ=   22.4340   25.7238   22.2410 Q=   -0.8340 A=    0.0000 R=    0.0000 C=    0.0000
 XYZ=   21.5462   26.0279   22.0524 Q=    0.4170 A=    0.0000 R=    0.0000 C=    0.0000
 XYZ=   22.7562   25.3897   21.4038 Q=    0.4170 A=    0.0000 R=    0.0000 C=    0.0000
 XYZ=   20.6564    4.2496   17.1062 Q=   -0.8340 A=    0.0000 R=    0.0000 C=    0.0000
 XYZ=   20.6583    3.3573   17.4528 Q=    0.4170 A=    0.0000 R=    0.0000 C=    0.0000
 XYZ=   21.5824    4.4678   17.0003 Q=    0.4170 A=    0.0000 R=    0.0000 C=    0.0000
 XYZ=   22.7152   20.4878   27.2807 Q=   -0.8340 A=    0.0000 R=    0.0000 C=    0.0000
 XYZ=   23.3008   21.0839   27.7475 Q=    0.4170 A=    0.0000 R=    0.0000 C=    0.0000
 XYZ=   23.0302   19.6134   27.5098 Q=    0.4170 A=    0.0000 R=    0.0000 C=    0.0000
 XYZ=   15.4009   11.3015   30.6066 Q=   -0.8340 A=    0.0000 R=    0.0000 C=    0.0000
 XYZ=   14.6877   11.3508   29.9701 Q=    0.4170 A=    0.0000 R=    0.0000 C=    0.0000
 XYZ=   14.9618   11.2493   31.4555 Q=    0.4170 A=    0.0000 R=    0.0000 C=    0.0000
 XYZ=    5.7952   21.7600   14.2872 Q=   -0.8340 A=    0.0000 R=    0.0000 C=    0.0000
 XYZ=    5.6879   21.7128   13.3372 Q=    0.4170 A=    0.0000 R=    0.0000 C=    0.0000
 XYZ=    6.4569   21.0979   14.4872 Q=    0.4170 A=    0.0000 R=    0.0000 C=    0.0000
 XYZ=   12.0709   19.6855   20.6839 Q=   -0.8340 A=    0.0000 R=    0.0000 C=    0.0000
 XYZ=   12.7855   20.1305   21.1396 Q=    0.4170 A=    0.0000 R=    0.0000 C=    0.0000
 XYZ=   11.2799   19.9722   21.1403 Q=    0.4170 A=    0.0000 R=    0.0000 C=    0.0000
 XYZ=   30.4763   11.8532   18.3704 Q=   -0.8340 A=    0.0000 R=    0.0000 C=    0.0000
 XYZ=   30.5306   12.7641   18.0814 Q=    0.4170 A=    0.0000 R=    0.0000 C=    0.0000
 XYZ=   31.3141   11.4691   18.1119 Q=    0.4170 A=    0.0000 R=    0.0000 C=    0.0000
 XYZ=   12.9454   29.0185   19.1766 Q=   -0.8340 A=    0.0000 R=    0.0000 C=    0.0000
 XYZ=   12.4849   29.0691   20.0142 Q=    0.4170 A=    0.0000 R=    0.0000 C=    0.0000
 XYZ=   12.4428   29.5856   18.5918 Q=    0.4170 A=    0.0000 R=    0.0000 C=    0.0000
 XYZ=   21.4537   29.2161   19.6267 Q=   -0.8340 A=    0.0000 R=    0.0000 C=    0.0000
 XYZ=   21.0909   28.3304   19.6249 Q=    0.4170 A=    0.0000 R=    0.0000 C=    0.0000
 XYZ=   21.3080   29.5370   18.7367 Q=    0.4170 A=    0.0000 R=    0.0000 C=    0.0000
 XYZ=   15.7615   10.7115   26.2979 Q=   -0.8340 A=    0.0000 R=    0.0000 C=    0.0000
 XYZ=   15.3695   10.3087   25.5231 Q=    0.4170 A=    0.0000 R=    0.0000 C=    0.0000
 XYZ=   16.6658   10.8935   26.0423 Q=    0.4170 A=    0.0000 R=    0.0000 C=    0.0000
 XYZ=   18.1793    3.2108   12.9769 Q=   -0.8340 A=    0.0000 R=    0.0000 C=    0.0000
 XYZ=   17.9058    4.0666   12.6468 Q=    0.4170 A=    0.0000 R=    0.0000 C=    0.0000
 XYZ=   17.4929    2.6106   12.6854 Q=    0.4170 A=    0.0000 R=    0.0000 C=    0.0000
 XYZ=    3.4521   16.8962   13.3908 Q=   -0.8340 A=    0.0000 R=    0.0000 C=    0.0000
 XYZ=    3.3147   17.7521   12.9849 Q=    0.4170 A=    0.0000 R=    0.0000 C=    0.0000
 XYZ=    4.1262   17.0499   14.0527 Q=    0.4170 A=    0.0000 R=    0.0000 C=    0.0000
 XYZ=   20.8727    4.2033   24.1653 Q=   -0.8340 A=    0.0000 R=    0.0000 C=    0.0000
 XYZ=   21.1124    5.1127   24.3436 Q=    0.4170 A=    0.0000 R=    0.0000 C=    0.0000
 XYZ=   19.9158    4.2070   24.1441 Q=    0.4170 A=    0.0000 R=    0.0000 C=    0.0000
 XYZ=   23.4890   13.2063   18.7817 Q=   -0.8340 A=    0.0000 R=    0.0000 C=    0.0000
 XYZ=   22.5446   13.0944   18.8902 Q=    0.4170 A=    0.0000 R=    0.0000 C=    0.0000
 XYZ=   23.8607   12.3587   19.0261 Q=    0.4170 A=    0.0000 R=    0.0000 C=    0.0000
 XYZ=    8.3441   26.4370   24.8966 Q=   -0.8340 A=    0.0000 R=    0.0000 C=    0.0000
 XYZ=    9.0911   25.8836   25.1245 Q=    0.4170 A=    0.0000 R=    0.0000 C=    0.0000
 XYZ=    7.7920   26.4287   25.6786 Q=    0.4170 A=    0.0000 R=    0.0000 C=    0.0000
 XYZ=   21.3224   29.9369   13.3924 Q=   -0.8340 A=    0.0000 R=    0.0000 C=    0.0000
 XYZ=   20.9284   29.2301   13.9036 Q=    0.4170 A=    0.0000 R=    0.0000 C=    0.0000
 XYZ=   22.2059   29.6263   13.1945 Q=    0.4170 A=    0.0000 R=    0.0000 C=    0.0000
 XYZ=   20.7436    7.2040   17.9478 Q=   -0.8340 A=    0.0000 R=    0.0000 C=    0.0000
 XYZ=   20.5575    7.5405   17.0713 Q=    0.4170 A=    0.0000 R=    0.0000 C=    0.0000
 XYZ=   20.5065    6.2777   17.9047 Q=    0.4170 A=    0.0000 R=    0.0000 C=    0.0000
 XYZ=   11.6802   26.0748   19.0612 Q=   -0.8340 A=    0.0000 R=    0.0000 C=    0.0000
 XYZ=   11.2384   26.8341   19.4413 Q=    0.4170 A=    0.0000 R=    0.0000 C=    0.0000
 XYZ=   11.0131   25.6567   18.5168 Q=    0.4170 A=    0.0000 R=    0.0000 C=    0.0000
 XYZ=   21.4924   23.8808   24.7628 Q=   -0.8340 A=    0.0000 R=    0.0000 C=    0.0000
 XYZ=   20.8631   24.5692   24.5479 Q=    0.4170 A=    0.0000 R=    0.0000 C=    0.0000
 XYZ=   21.0799   23.3924   25.4752 Q=    0.4170 A=    0.0000 R=    0.0000 C=    0.0000
 XYZ=   14.5273   21.2158   21.7139 Q=   -0.8340 A=    0.0000 R=    0.0000 C=    0.0000
 XYZ=   14.1830   22.0989   21.5804 Q=    0.4170 A=    0.0000 R=    0.0000 C=    0.0000
 XYZ=   15.0140   21.0242   20.9122 Q=    0.4170 A=    0.0000 R=    0.0000 C=    0.0000
 XYZ=    5.8022   17.4992   15.3305 Q=   -0.8340 A=    0.0000 R=    0.0000 C=    0.0000
 XYZ=    6.7400   17.3303   15.4209 Q=    0.4170 A=    0.0000 R=    0.0000 C=    0.0000
 XYZ=    5.4002   17.0128   16.0502 Q=    0.4170 A=    0.0000 R=    0.0000 C=    0.0000
 XYZ=   24.5458   13.4991    5.5165 Q=   -0.8340 A=    0.0000 R=    0.0000 C=    0.0000
 XYZ=   25.3610   13.3819    6.0042 Q=    0.4170 A=    0.0000 R=    0.0000 C=    0.0000
 XYZ=   24.7535   14.1617    4.8576 Q=    0.4170 A=    0.0000 R=    0.0000 C=    0.0000
 XYZ=   30.1637   22.3770   20.5062 Q=   -0.8340 A=    0.0000 R=    0.0000 C=    0.0000
 XYZ=   29.7750   23.1766   20.1514 Q=    0.4170 A=    0.0000 R=    0.0000 C=    0.0000
 XYZ=   29.4865   22.0138   21.0768 Q=    0.4170 A=    0.0000 R=    0.0000 C=    0.0000
 XYZ=   28.7727    9.6643   18.2888 Q=   -0.8340 A=    0.0000 R=    0.0000 C=    0.0000
 XYZ=   28.2861    9.9213   17.5056 Q=    0.4170 A=    0.0000 R=    0.0000 C=    0.0000
 XYZ=   29.4050   10.3706   18.4210 Q=    0.4170 A=    0.0000 R=    0.0000 C=    0.0000
 XYZ=   18.0655   27.3135    8.7504 Q=   -0.8340 A=    0.0000 R=    0.0000 C=    0.0000
 XYZ=   18.0377   28.0620    8.1545 Q=    0.4170 A=    0.0000 R=    0.0000 C=    0.0000
 XYZ=   18.9711   27.0063    8.7077 Q=    0.4170 A=    0.0000 R=    0.0000 C=    0.0000
 XYZ=    3.7186   10.8788   14.2061 Q=   -0.8340 A=    0.0000 R=    0.0000 C=    0.0000
 XYZ=    4.0831   10.0481   14.5116 Q=    0.4170 A=    0.0000 R=    0.0000 C=    0.0000
 XYZ=    3.8459   11.4808   14.9393 Q=    0.4170 A=    0.0000 R=    0.0000 C=    0.0000
 XYZ=   15.8008   11.4833   10.3087 Q=   -0.8340 A=    0.0000 R=    0.0000 C=    0.0000
 XYZ=   15.7434   10.9174   11.0785 Q=    0.4170 A=    0.0000 R=    0.0000 C=    0.0000
 XYZ=   16.6485   11.9197   10.3944 Q=    0.4170 A=    0.0000 R=    0.0000 C=    0.0000
 XYZ=   20.5548   17.8235    4.1081 Q=   -0.8340 A=    0.0000 R=    0.0000 C=    0.0000
 XYZ=   21.1474   17.1286    4.3947 Q=    0.4170 A=    0.0000 R=    0.0000 C=    0.0000
 XYZ=   19.7016   17.5725    4.4619 Q=    0.4170 A=    0.0000 R=    0.0000 C=    0.0000
 XYZ=   19.9288    6.5659   20.4386 Q=   -0.8340 A=    0.0000 R=    0.0000 C=    0.0000
 XYZ=   19.8267    6.9992   19.5912 Q=    0.4170 A=    0.0000 R=    0.0000 C=    0.0000
 XYZ=   20.8484    6.7006   20.6677 Q=    0.4170 A=    0.0000 R=    0.0000 C=    0.0000
 XYZ=    8.4062   14.8767   21.3890 Q=   -0.8340 A=    0.0000 R=    0.0000 C=    0.0000
 XYZ=    8.9088   14.1130   21.1054 Q=    0.4170 A=    0.0000 R=    0.0000 C=    0.0000
 XYZ=    7.5117   14.6960   21.1003 Q=    0.4170 A=    0.0000 R=    0.0000 C=    0.0000
 XYZ=   10.1982    8.4187   13.8940 Q=   -0.8340 A=    0.0000 R=    0.0000 C=    0.0000
 XYZ=    9.5214    8.0069   13.3567 Q=    0.4170 A=    0.0000 R=    0.0000 C=    0.0000
 XYZ=    9.7207    8.7997   14.6310 Q=    0.4170 A=    0.0000 R=    0.0000 C=    0.0000
 XYZ=   15.8463   23.6025   19.3423 Q=   -0.8340 A=    0.0000 R=    0.0000 C=    0.0000
 XYZ=   14.9890   23.1994   19.4793 Q=    0.4170 A=    0.0000 R=    0.0000 C=    0.0000
 XYZ=   16.0518   24.0198   20.1789 Q=    0.4170 A=    0.0000 R=    0.0000 C=    0.0000
 XYZ=   12.7282   21.1642   10.6754 Q=   -0.8340 A=    0.0000 R=    0.0000 C=    0.0000
 XYZ=   13.6165   21.0015   10.3580 Q=    0.4170 A=    0.0000 R=    0.0000 C=    0.0000
 XYZ=   12.5940   22.1026   10.5428 Q=    0.4170 A=    0.0000 R=    0.0000 C=    0.0000
 XYZ=    5.0450   19.6200    9.8924 Q=   -0.8340 A=    0.0000 R=    0.0000 C=    0.0000
 XYZ=    5.4089   18.7446   10.0250 Q=    0.4170 A=    0.0000 R=    0.0000 C=    0.0000
 XYZ=    5.0908   19.7582    8.9463 Q=    0.4170 A=    0.0000 R=    0.0000 C=    0.0000
 XYZ=   25.0306   20.3373   10.0171 Q=   -0.8340 A=    0.0000 R=    0.0000 C=    0.0000
 XYZ=   25.2436   19.8998    9.1928 Q=    0.4170 A=    0.0000 R=    0.0000 C=    0.0000
 XYZ=   25.2381   19.6913   10.6923 Q=    0.4170 A=    0.0000 R=    0.0000 C=    0.0000
 XYZ=   21.1797   24.1198   17.6992 Q=   -0.8340 A=    0.0000 R=    0.0000 C=    0.0000
 XYZ=   20.6588   24.5114   16.9981 Q=    0.4170 A=    0.0000 R=    0.0000 C=    0.0000
 XYZ=   20.5340   23.8203   18.3393 Q=    0.4170 A=    0.0000 R=    0.0000 C=    0.0000
 XYZ=   17.0547   23.7922   23.6826 Q=   -0.8340 A=    0.0000 R=    0.0000 C=    0.0000
 XYZ=   17.8151   24.2723   24.0105 Q=    0.4170 A=    0.0000 R=    0.0000 C=    0.0000
 XYZ=   16.4653   23.7336   24.4345 Q=    0.4170 A=    0.0000 R=    0.0000 C=    0.0000
 XYZ=    2.6046   23.5857   15.0559 Q=   -0.8340 A=    0.0000 R=    0.0000 C=    0.0000
 XYZ=    3.4991   23.4370   15.3624 Q=    0.4170 A=    0.0000 R=    0.0000 C=    0.0000
 XYZ=    2.0822   22.9246   15.5102 Q=    0.4170 A=    0.0000 R=    0.0000 C=    0.0000
 XYZ=   20.1303   10.8656   22.5201 Q=   -0.8340 A=    0.0000 R=    0.0000 C=    0.0000
 XYZ=   19.2845   11.0311   22.1037 Q=    0.4170 A=    0.0000 R=    0.0000 C=    0.0000
 XYZ=   20.6156   10.3456   21.8795 Q=    0.4170 A=    0.0000 R=    0.0000 C=    0.0000
 XYZ=   26.3371   23.0636   22.4063 Q=   -0.8340 A=    0.0000 R=    0.0000 C=    0.0000
 XYZ=   26.6374   22.2354   22.7807 Q=    0.4170 A=    0.0000 R=    0.0000 C=    0.0000
 XYZ=   26.1312   22.8545   21.4952 Q=    0.4170 A=    0.0000 R=    0.0000 C=    0.0000
 XYZ=   17.8514   17.2692   26.5368 Q=   -0.8340 A=    0.0000 R=    0.0000 C=    0.0000
 XYZ=   17.0593   17.3954   26.0144 Q=    0.4170 A=    0.0000 R=    0.0000 C=    0.0000
 XYZ=   18.5230   17.0264   25.8995 Q=    0.4170 A=    0.0000 R=    0.0000 C=    0.0000
 XYZ=   12.1539    7.8002   20.0449 Q=   -0.8340 A=    0.0000 R=    0.0000 C=    0.0000
 XYZ=   12.0795    8.3615   20.8167 Q=    0.4170 A=    0.0000 R=    0.0000 C=    0.0000
 XYZ=   11.2762    7.4366   19.9271 Q=    0.4170 A=    0.0000 R=    0.0000 C=    0.0000
 XYZ=    7.4804    9.2969   14.4781 Q=   -0.8340 A=    0.0000 R=    0.0000 C=    0.0000
 XYZ=    7.5844    8.3811   14.7363 Q=    0.4170 A=    0.0000 R=    0.0000 C=    0.0000
 XYZ=    6.7096    9.5961   14.9603 Q=    0.4170 A=    0.0000 R=    0.0000 C=    0.0000
 XYZ=    9.7991   14.5269   23.9254 Q=   -0.8340 A=    0.0000 R=    0.0000 C=    0.0000
 XYZ=   10.0908   15.3769   24.2550 Q=    0.4170 A=    0.0000 R=    0.0000 C=    0.0000
 XYZ=    8.8573   14.6322   23.7905 Q=    0.4170 A=    0.0000 R=    0.0000 C=    0.0000
 XYZ=   16.8937   19.4005   29.6173 Q=   -0.8340 A=    0.0000 R=    0.0000 C=    0.0000
 XYZ=   17.1275   18.5542   29.9985 Q=    0.4170 A=    0.0000 R=    0.0000 C=    0.0000
 XYZ=   16.0731   19.6394   30.0483 Q=    0.4170 A=    0.0000 R=    0.0000 C=    0.0000
 XYZ=   21.0983    6.9567   23.9961 Q=   -0.8340 A=    0.0000 R=    0.0000 C=    0.0000
 XYZ=   20.1793    7.0343   23.7397 Q=    0.4170 A=    0.0000 R=    0.0000 C=    0.0000
 XYZ=   21.1112    7.2044   24.9206 Q=    0.4170 A=    0.0000 R=    0.0000 C=    0.0000
 XYZ=   27.4838   18.7362   17.3409 Q=   -0.8340 A=    0.0000 R=    0.0000 C=    0.0000
 XYZ=   27.4168   19.1945   16.5032 Q=    0.4170 A=    0.0000 R=    0.0000 C=    0.0000
 XYZ=   28.2864   19.0756   17.7368 Q=    0.4170 A=    0.0000 R=    0.0000 C=    0.0000
 XYZ=   22.8590    9.9370   11.4168 Q=   -0.8340 A=    0.0000 R=    0.0000 C=    0.0000
 XYZ=   22.2135   10.5512   11.7665 Q=    0.4170 A=    0.0000 R=    0.0000 C=    0.0000
 XYZ=   23.6645   10.1384   11.8930 Q=    0.4170 A=    0.0000 R=    0.0000 C=    0.0000
 XYZ=   10.7435   25.2678   26.0320 Q=   -0.8340 A=    0.0000 R=    0.0000 C=    0.0000
 XYZ=   10.7789   26.0097   26.6359 Q=    0.4170 A=    0.0000 R=    0.0000 C=    0.0000
 XYZ=   11.5887   24.8313   26.1385 Q=    0.4170 A=    0.0000 R=    0.0000 C=    0.0000
 XYZ=   15.3108    4.3445   13.7360 Q=   -0.8340 A=    0.0000 R=    0.0000 C=    0.0000
 XYZ=   15.9717    4.1385   14.3971 Q=    0.4170 A=    0.0000 R=    0.0000 C=    0.0000
 XYZ=   14.4777    4.1251   14.1531 Q=    0.4170 A=    0.0000 R=    0.0000 C=    0.0000
 XYZ=   22.1164   24.4641    7.5295 Q=   -0.8340 A=    0.0000 R=    0.0000 C=    0.0000
 XYZ=   21.4623   23.7694    7.6058 Q=    0.4170 A=    0.0000 R=    0.0000 C=    0.0000
 XYZ=   22.9438   24.0410    7.7587 Q=    0.4170 A=    0.0000 R=    0.0000 C=    0.0000
 XYZ=   22.9011   20.0329    6.7281 Q=   -0.8340 A=    0.0000 R=    0.0000 C=    0.0000
 XYZ=   22.4620   19.7680    5.9199 Q=    0.4170 A=    0.0000 R=    0.0000 C=    0.0000
 XYZ=   22.3221   20.6921    7.1108 Q=    0.4170 A=    0.0000 R=    0.0000 C=    0.0000
 XYZ=    3.5070   20.1962   14.8608 Q=   -0.8340 A=    0.0000 R=    0.0000 C=    0.0000
 XYZ=    3.4612   19.7007   14.0431 Q=    0.4170 A=    0.0000 R=    0.0000 C=    0.0000
 XYZ=    4.2672   20.7677   14.7528 Q=    0.4170 A=    0.0000 R=    0.0000 C=    0.0000
 XYZ=    5.2447   26.1863   18.2388 Q=   -0.8340 A=    0.0000 R=    0.0000 C=    0.0000
 XYZ=    6.0526   25.7348   17.9945 Q=    0.4170 A=    0.0000 R=    0.0000 C=    0.0000
 XYZ=    5.2010   26.1016   19.1912 Q=    0.4170 A=    0.0000 R=    0.0000 C=    0.0000
 XYZ=    9.1694    7.2473   21.0066 Q=   -0.8340 A=    0.0000 R=    0.0000 C=    0.0000
 XYZ=    8.2280    7.1534   21.1525 Q=    0.4170 A=    0.0000 R=    0.0000 C=    0.0000
 XYZ=    9.3724    8.1319   21.3107 Q=    0.4170 A=    0.0000 R=    0.0000 C=    0.0000
 XYZ=   27.1377   21.7168   17.8702 Q=   -0.8340 A=    0.0000 R=    0.0000 C=    0.0000
 XYZ=   27.2890   22.6042   17.5449 Q=    0.4170 A=    0.0000 R=    0.0000 C=    0.0000
 XYZ=   26.9172   21.2093   17.0891 Q=    0.4170 A=    0.0000 R=    0.0000 C=    0.0000
 XYZ=   22.3598   20.0586   10.0307 Q=   -0.8340 A=    0.0000 R=    0.0000 C=    0.0000
 XYZ=   23.2241   20.4699   10.0225 Q=    0.4170 A=    0.0000 R=    0.0000 C=    0.0000
 XYZ=   21.9341   20.4103   10.8127 Q=    0.4170 A=    0.0000 R=    0.0000 C=    0.0000
 XYZ=    6.5803   13.6566   19.1990 Q=   -0.8340 A=    0.0000 R=    0.0000 C=    0.0000
 XYZ=    6.8044   12.7500   18.9888 Q=    0.4170 A=    0.0000 R=    0.0000 C=    0.0000
 XYZ=    6.0398   13.5938   19.9865 Q=    0.4170 A=    0.0000 R=    0.0000 C=    0.0000
 XYZ=   16.9940    7.6187    6.9715 Q=   -0.8340 A=    0.0000 R=    0.0000 C=    0.0000
 XYZ=   16.6348    7.1943    6.1924 Q=    0.4170 A=    0.0000 R=    0.0000 C=    0.0000
 XYZ=   17.6624    7.0114    7.2890 Q=    0.4170 A=    0.0000 R=    0.0000 C=    0.0000
 XYZ=   18.6243   20.6181   27.8740 Q=   -0.8340 A=    0.0000 R=    0.0000 C=    0.0000
 XYZ=   17.7735   20.3336   28.2078 Q=    0.4170 A=    0.0000 R=    0.0000 C=    0.0000
 XYZ=   19.2621   20.1436   28.4072 Q=    0.4170 A=    0.0000 R=    0.0000 C=    0.0000
 XYZ=   17.4172   26.0830   18.4242 Q=   -0.8340 A=    0.0000 R=    0.0000 C=    0.0000
 XYZ=   16.6380   26.4218   18.8649 Q=    0.4170 A=    0.0000 R=    0.0000 C=    0.0000
 XYZ=   17.2282   25.1555   18.2817 Q=    0.4170 A=    0.0000 R=    0.0000 C=    0.0000
 XYZ=   10.8181    6.9710   24.9422 Q=   -0.8340 A=    0.0000 R=    0.0000 C=    0.0000
 XYZ=   10.6336    6.6144   25.8111 Q=    0.4170 A=    0.0000 R=    0.0000 C=    0.0000
 XYZ=   10.2820    6.4454   24.3483 Q=    0.4170 A=    0.0000 R=    0.0000 C=    0.0000
 XYZ=   12.0845   18.3884   10.2562 Q=   -0.8340 A=    0.0000 R=    0.0000 C=    0.0000
 XYZ=   12.4695   19.2033   10.5786 Q=    0.4170 A=    0.0000 R=    0.0000 C=    0.0000
 XYZ=   11.2612   18.3051   10.7373 Q=    0.4170 A=    0.0000 R=    0.0000 C=    0.0000
 XYZ=    9.3237    6.2803    9.7912 Q=   -0.8340 A=    0.0000 R=    0.0000 C=    0.0000
 XYZ=    9.6088    5.4421    9.4271 Q=    0.4170 A=    0.0000 R=    0.0000 C=    0.0000
 XYZ=    9.6530    6.9342    9.1746 Q=    0.4170 A=    0.0000 R=    0.0000 C=    0.0000
 XYZ=   10.8040   29.4591   15.5084 Q=   -0.8340 A=    0.0000 R=    0.0000 C=    0.0000
 XYZ=   11.5153   28.8316   15.6364 Q=    0.4170 A=    0.0000 R=    0.0000 C=    0.0000
 XYZ=   10.0067   28.9535   15.6662 Q=    0.4170 A=    0.0000 R=    0.0000 C=    0.0000
 XYZ=   15.6312   14.0134   23.4587 Q=   -0.8340 A=    0.0000 R=    0.0000 C=    0.0000
 XYZ=   16.5161   14.3224   23.2646 Q=    0.4170 A=    0.0000 R=    0.0000 C=    0.0000
 XYZ=   15.2044   13.9554   22.6039 Q=    0.4170 A=    0.0000 R=    0.0000 C=    0.0000
 XYZ=   20.0468   19.0427    8.9828 Q=   -0.8340 A=    0.0000 R=    0.0000 C=    0.0000
 XYZ=   20.0433   18.1438    8.6539 Q=    0.4170 A=    0.0000 R=    0.0000 C=    0.0000
 XYZ=   20.9720   19.2422    9.1258 Q=    0.4170 A=    0.0000 R=    0.0000 C=    0.0000
 XYZ=   12.6114   23.7484   21.8602 Q=   -0.8340 A=    0.0000 R=    0.0000 C=    0.0000
 XYZ=   13.2708   24.1097   21.2679 Q=    0.4170 A=    0.0000 R=    0.0000 C=    0.0000
 XYZ=   12.1058   24.5083   22.1486 Q=    0.4170 A=    0.0000 R=    0.0000 C=    0.0000
 XYZ=   13.4741    6.3898    8.9015 Q=   -0.8340 A=    0.0000 R=    0.0000 C=    0.0000
 XYZ=   13.9268    7.2082    8.6977 Q=    0.4170 A=    0.0000 R=    0.0000 C=    0.0000
 XYZ=   13.8790    6.0877    9.7146 Q=    0.4170 A=    0.0000 R=    0.0000 C=    0.0000
 XYZ=   15.6000   21.5616   10.0491 Q=   -0.8340 A=    0.0000 R=    0.0000 C=    0.0000
 XYZ=   15.8560   22.4025    9.6703 Q=    0.4170 A=    0.0000 R=    0.0000 C=    0.0000
 XYZ=   16.1472   21.4733   10.8294 Q=    0.4170 A=    0.0000 R=    0.0000 C=    0.0000
 XYZ=    9.4184   15.9642   12.8596 Q=   -0.8340 A=    0.0000 R=    0.0000 C=    0.0000
 XYZ=    9.0088   16.1018   12.0055 Q=    0.4170 A=    0.0000 R=    0.0000 C=    0.0000
 XYZ=   10.3500   15.8610   12.6651 Q=    0.4170 A=    0.0000 R=    0.0000 C=    0.0000
 XYZ=    2.9023   19.5322   17.5378 Q=   -0.8340 A=    0.0000 R=    0.0000 C=    0.0000
 XYZ=    3.4015   20.2479   17.9311 Q=    0.4170 A=    0.0000 R=    0.0000 C=    0.0000
 XYZ=    2.9890   19.6691   16.5944 Q=    0.4170 A=    0.0000 R=    0.0000 C=    0.0000
 XYZ=    8.4922   27.7602   15.7403 Q=   -0.8340 A=    0.0000 R=    0.0000 C=    0.0000
 XYZ=    8.1269   28.5830   15.4151 Q=    0.4170 A=    0.0000 R=    0.0000 C=    0.0000
 XYZ=    7.8408   27.0992   15.5059 Q=    0.4170 A=    0.0000 R=    0.0000 C=    0.0000
 XYZ=   17.2539   12.8828   20.5688 Q=   -0.8340 A=    0.0000 R=    0.0000 C=    0.0000
 XYZ=   17.6254   12.6320   19.7230 Q=    0.4170 A=    0.0000 R=    0.0000 C=    0.0000
 XYZ=   16.6525   12.1709   20.7873 Q=    0.4170 A=    0.0000 R=    0.0000 C=    0.0000
 XYZ=    6.6592   17.7436    7.1244 Q=   -0.8340 A=    0.0000 R=    0.0000 C=    0.0000
 XYZ=    7.0468   18.0790    7.9328 Q=    0.4170 A=    0.0000 R=    0.0000 C=    0.0000
 XYZ=    7.2409   18.0566    6.4315 Q=    0.4170 A=    0.0000 R=    0.0000 C=    0.0000
 XYZ=   11.3009    6.5969   15.8127 Q=   -0.8340 A=    0.0000 R=    0.0000 C=    0.0000
 XYZ=   11.6680    7.3067   16.3397 Q=    0.4170 A=    0.0000 R=    0.0000 C=    0.0000
 XYZ=   11.2312    6.9638   14.9314 Q=    0.4170 A=    0.0000 R=    0.0000 C=    0.0000
 XYZ=    4.4710   15.8913    7.8724 Q=   -0.8340 A=    0.0000 R=    0.0000 C=    0.0000
 XYZ=    5.2679   16.3995    7.7212 Q=    0.4170 A=    0.0000 R=    0.0000 C=    0.0000
 XYZ=    3.7586   16.4879    7.6426 Q=    0.4170 A=    0.0000 R=    0.0000 C=    0.0000
 XYZ=   17.2697   12.9207    5.3925 Q=   -0.8340 A=    0.0000 R=    0.0000 C=    0.0000
 XYZ=   17.3311   13.3628    6.2392 Q=    0.4170 A=    0.0000 R=    0.0000 C=    0.0000
 XYZ=   16.9862   12.0317    5.6059 Q=    0.4170 A=    0.0000 R=    0.0000 C=    0.0000
 XYZ=   17.4955   17.4037    9.6807 Q=   -0.8340 A=    0.0000 R=    0.0000 C=    0.0000
 XYZ=   17.0192   16.7757   10.2238 Q=    0.4170 A=    0.0000 R=    0.0000 C=    0.0000
 XYZ=   17.9077   17.9986   10.3073 Q=    0.4170 A=    0.0000 R=    0.0000 C=    0.0000
 XYZ=   19.1394   14.9309    4.9064 Q=   -0.8340 A=    0.0000 R=    0.0000 C=    0.0000
 XYZ=   19.9413   14.5119    5.2188 Q=    0.4170 A=    0.0000 R=    0.0000 C=    0.0000
 XYZ=   18.4601   14.2668    5.0239 Q=    0.4170 A=    0.0000 R=    0.0000 C=    0.0000
 XYZ=    8.7887   19.4609   19.5061 Q=   -0.8340 A=    0.0000 R=    0.0000 C=    0.0000
 XYZ=    9.4817   19.7885   18.9329 Q=    0.4170 A=    0.0000 R=    0.0000 C=    0.0000
 XYZ=    8.8231   18.5097   19.4049 Q=    0.4170 A=    0.0000 R=    0.0000 C=    0.0000
 XYZ=    2.5358   14.6026   20.3638 Q=   -0.8340 A=    0.0000 R=    0.0000 C=    0.0000
 XYZ=    2.7821   13.8773   19.7898 Q=    0.4170 A=    0.0000 R=    0.0000 C=    0.0000
 XYZ=    2.4663   15.3579   19.7799 Q=    0.4170 A=    0.0000 R=    0.0000 C=    0.0000
 XYZ=   19.9570   27.5746   14.5019 Q=   -0.8340 A=    0.0000 R=    0.0000 C=    0.0000
 XYZ=   19.1375   27.5788   14.9963 Q=    0.4170 A=    0.0000 R=    0.0000 C=    0.0000
 XYZ=   20.0224   26.6856   14.1531 Q=    0.4170 A=    0.0000 R=    0.0000 C=    0.0000
 XYZ=   24.1202   23.0659   24.8852 Q=   -0.8340 A=    0.0000 R=    0.0000 C=    0.0000
 XYZ=   23.2228   23.3633   24.7353 Q=    0.4170 A=    0.0000 R=    0.0000 C=    0.0000
 XYZ=   24.1003   22.1308   24.6815 Q=    0.4170 A=    0.0000 R=    0.0000 C=    0.0000
 XYZ=   23.5635   15.0657   16.9008 Q=   -0.8340 A=    0.0000 R=    0.0000 C=    0.0000
 XYZ=   23.4204   14.6268   17.7393 Q=    0.4170 A=    0.0000 R=    0.0000 C=    0.0000
 XYZ=   23.6699   15.9894   17.1285 Q=    0.4170 A=    0.0000 R=    0.0000 C=    0.0000
 XYZ=   28.6903   24.4541   19.4650 Q=   -0.8340 A=    0.0000 R=    0.0000 C=    0.0000
 XYZ=   28.6579   24.2117   18.5395 Q=    0.4170 A=    0.0000 R=    0.0000 C=    0.0000
 XYZ=   27.7999   24.7395   19.6696 Q=    0.4170 A=    0.0000 R=    0.0000 C=    0.0000
 XYZ=   10.4537   19.4803   24.3296 Q=   -0.8340 A=    0.0000 R=    0.0000 C=    0.0000
 XYZ=   11.0665   19.7979   24.9928 Q=    0.4170 A=    0.0000 R=    0.0000 C=    0.0000
 XYZ=   10.6011   20.0497   23.5744 Q=    0.4170 A=    0.0000 R=    0.0000 C=    0.0000
 XYZ=   11.8956   18.6131   13.5213 Q=   -0.8340 A=    0.0000 R=    0.0000 C=    0.0000
 XYZ=   11.8607   18.5410   14.4752 Q=    0.4170 A=    0.0000 R=    0.0000 C=    0.0000
 XYZ=   10.9997   18.4359   13.2344 Q=    0.4170 A=    0.0000 R=    0.0000 C=    0.0000
 XYZ=    7.3816   24.2265   17.7947 Q=   -0.8340 A=    0.0000 R=    0.0000 C=    0.0000
 XYZ=    7.8209   23.5566   17.2709 Q=    0.4170 A=    0.0000 R=    0.0000 C=    0.0000
 XYZ=    7.4652   23.9186   18.6971 Q=    0.4170 A=    0.0000 R=    0.0000 C=    0.0000
 XYZ=   28.6983   11.2082   11.4813 Q=   -0.8340 A=    0.0000 R=    0.0000 C=    0.0000
 XYZ=   29.3956   11.3838   10.8496 Q=    0.4170 A=    0.0000 R=    0.0000 C=    0.0000
 XYZ=   28.4565   12.0711   11.8178 Q=    0.4170 A=    0.0000 R=    0.0000 C=    0.0000
 XYZ=   22.2983   22.8352   21.5933 Q=   -0.8340 A=    0.0000 R=    0.0000 C=    0.0000
 XYZ=   22.0662   21.9625   21.9107 Q=    0.4170 A=    0.0000 R=    0.0000 C=    0.0000
 XYZ=   22.6160   23.2963   22.3696 Q=    0.4170 A=    0.0000 R=    0.0000 C=    0.0000
 XYZ=    9.1410   20.3465    4.2913 Q=   -0.8340 A=    0.0000 R=    0.0000 C=    0.0000
 XYZ=    9.8286   21.0122    4.3052 Q=    0.4170 A=    0.0000 R=    0.0000 C=    0.0000
 XYZ=    9.6029   19.5213    4.4396 Q=    0.4170 A=    0.0000 R=    0.0000 C=    0.0000
 XYZ=   14.7877   20.6447    2.2160 Q=   -0.8340 A=    0.0000 R=    0.0000 C=    0.0000
 XYZ=   14.4974   19.7330    2.2437 Q=    0.4170 A=    0.0000 R=    0.0000 C=    0.0000
 XYZ=   14.0455   21.1218    1.8448 Q=    0.4170 A=    0.0000 R=    0.0000 C=    0.0000
 XYZ=    6.8248   11.9686    7.3206 Q=   -0.8340 A=    0.0000 R=    0.0000 C=    0.0000
 XYZ=    6.5114   11.3811    8.0083 Q=    0.4170 A=    0.0000 R=    0.0000 C=    0.0000
 XYZ=    6.0505   12.4671    7.0595 Q=    0.4170 A=    0.0000 R=    0.0000 C=    0.0000
 XYZ=   24.9455    8.6924   20.5972 Q=   -0.8340 A=    0.0000 R=    0.0000 C=    0.0000
 XYZ=   24.5147    8.8488   21.4375 Q=    0.4170 A=    0.0000 R=    0.0000 C=    0.0000
 XYZ=   24.9445    7.7401   20.5005 Q=    0.4170 A=    0.0000 R=    0.0000 C=    0.0000
 XYZ=   16.7319   27.7685   22.1254 Q=   -0.8340 A=    0.0000 R=    0.0000 C=    0.0000
 XYZ=   17.2784   27.8783   22.9034 Q=    0.4170 A=    0.0000 R=    0.0000 C=    0.0000
 XYZ=   15.8344   27.8414   22.4503 Q=    0.4170 A=    0.0000 R=    0.0000 C=    0.0000
 XYZ=   12.2758   27.2002   16.3213 Q=   -0.8340 A=    0.0000 R=    0.0000 C=    0.0000
 XYZ=   11.9492   26.8321   17.1424 Q=    0.4170 A=    0.0000 R=    0.0000 C=    0.0000
 XYZ=   12.9965   26.6227   16.0694 Q=    0.4170 A=    0.0000 R=    0.0000 C=    0.0000
 XYZ=   21.8115   27.9392   24.8705 Q=   -0.8340 A=    0.0000 R=    0.0000 C=    0.0000
 XYZ=   22.2567   28.4866   25.5173 Q=    0.4170 A=    0.0000 R=    0.0000 C=    0.0000
 XYZ=   22.1938   27.0696   24.9881 Q=    0.4170 A=    0.0000 R=    0.0000 C=    0.0000
 XYZ=    4.9525   18.9380   22.1239 Q=   -0.8340 A=    0.0000 R=    0.0000 C=    0.0000
 XYZ=    5.7132   18.3623   22.0465 Q=    0.4170 A=    0.0000 R=    0.0000 C=    0.0000
 XYZ=    4.6243   18.7843   23.0099 Q=    0.4170 A=    0.0000 R=    0.0000 C=    0.0000
 XYZ=   22.7306   21.8725   18.3371 Q=   -0.8340 A=    0.0000 R=    0.0000 C=    0.0000
 XYZ=   22.2995   21.0696   18.0442 Q=    0.4170 A=    0.0000 R=    0.0000 C=    0.0000
 XYZ=   22.1395   22.5749   18.0660 Q=    0.4170 A=    0.0000 R=    0.0000 C=    0.0000
 XYZ=    1.8066   14.9404   12.6617 Q=   -0.8340 A=    0.0000 R=    0.0000 C=    0.0000
 XYZ=    2.4132   15.6206   12.9543 Q=    0.4170 A=    0.0000 R=    0.0000 C=    0.0000
 XYZ=    1.8681   14.9585   11.7067 Q=    0.4170 A=    0.0000 R=    0.0000 C=    0.0000
 XYZ=    2.1173   13.8452   16.2675 Q=   -0.8340 A=    0.0000 R=    0.0000 C=    0.0000
 XYZ=    2.9170   13.7536   15.7494 Q=    0.4170 A=    0.0000 R=    0.0000 C=    0.0000
 XYZ=    2.2746   13.3134   17.0477 Q=    0.4170 A=    0.0000 R=    0.0000 C=    0.0000
 XYZ=    7.1859   20.8042   17.8153 Q=   -0.8340 A=    0.0000 R=    0.0000 C=    0.0000
 XYZ=    7.5527   20.6788   16.9402 Q=    0.4170 A=    0.0000 R=    0.0000 C=    0.0000
 XYZ=    7.7431   20.2761   18.3870 Q=    0.4170 A=    0.0000 R=    0.0000 C=    0.0000
 XYZ=   26.4400    6.7234   11.2399 Q=   -0.8340 A=    0.0000 R=    0.0000 C=    0.0000
 XYZ=   26.6411    7.5943   11.5823 Q=    0.4170 A=    0.0000 R=    0.0000 C=    0.0000
 XYZ=   26.7631    6.7391   10.3390 Q=    0.4170 A=    0.0000 R=    0.0000 C=    0.0000
 XYZ=   18.8684   10.7346   28.2472 Q=   -0.8340 A=    0.0000 R=    0.0000 C=    0.0000
 XYZ=   19.4027    9.9958   28.5385 Q=    0.4170 A=    0.0000 R=    0.0000 C=    0.0000
 XYZ=   18.0689   10.3331   27.9068 Q=    0.4170 A=    0.0000 R=    0.0000 C=    0.0000
 XYZ=   15.8463    4.7394   23.1455 Q=   -0.8340 A=    0.0000 R=    0.0000 C=    0.0000
 XYZ=   15.1853    4.9293   22.4797 Q=    0.4170 A=    0.0000 R=    0.0000 C=    0.0000
 XYZ=   15.3580    4.3252   23.8571 Q=    0.4170 A=    0.0000 R=    0.0000 C=    0.0000
 XYZ=   25.3614   11.7524    9.9658 Q=   -0.8340 A=    0.0000 R=    0.0000 C=    0.0000
 XYZ=   25.0433   11.5919   10.8542 Q=    0.4170 A=    0.0000 R=    0.0000 C=    0.0000
 XYZ=   26.3016   11.8988   10.0704 Q=    0.4170 A=    0.0000 R=    0.0000 C=    0.0000
 XYZ=   12.9200   15.9298    5.1753 Q=   -0.8340 A=    0.0000 R=    0.0000 C=    0.0000
 XYZ=   12.7312   15.4584    4.3639 Q=    0.4170 A=    0.0000 R=    0.0000 C=    0.0000
 XYZ=   12.3035   15.5682    5.8120 Q=    0.4170 A=    0.0000 R=    0.0000 C=    0.0000
 XYZ=   21.0221   29.3007   16.8645 Q=   -0.8340 A=    0.0000 R=    0.0000 C=    0.0000
 XYZ=   21.7342   28.8369   16.4240 Q=    0.4170 A=    0.0000 R=    0.0000 C=    0.0000
 XYZ=   20.2305   28.8321   16.5997 Q=    0.4170 A=    0.0000 R=    0.0000 C=    0.0000
 XYZ=   12.2443   15.6804   12.6516 Q=   -0.8340 A=    0.0000 R=    0.0000 C=    0.0000
 XYZ=   12.9650   15.4024   13.2169 Q=    0.4170 A=    0.0000 R=    0.0000 C=    0.0000
 XYZ=   12.0258   16.5609   12.9568 Q=    0.4170 A=    0.0000 R=    0.0000 C=    0.0000
 XYZ=   10.9156   28.5304   21.0784 Q=   -0.8340 A=    0.0000 R=    0.0000 C=    0.0000
 XYZ=   11.0787   28.6672   22.0116 Q=    0.4170 A=    0.0000 R=    0.0000 C=    0.0000
 XYZ=   10.2355   29.1668   20.8578 Q=    0.4170 A=    0.0000 R=    0.0000 C=    0.0000
 XYZ=   20.2196   10.1449    9.8871 Q=   -0.8340 A=    0.0000 R=    0.0000 C=    0.0000
 XYZ=   21.1366   10.1544    9.6128 Q=    0.4170 A=    0.0000 R=    0.0000 C=    0.0000
 XYZ=   19.7246   10.2321    9.0725 Q=    0.4170 A=    0.0000 R=    0.0000 C=    0.0000
 XYZ=   24.2594   16.9258   21.4753 Q=   -0.8340 A=    0.0000 R=    0.0000 C=    0.0000
 XYZ=   24.8786   17.0517   20.7563 Q=    0.4170 A=    0.0000 R=    0.0000 C=    0.0000
 XYZ=   23.8966   17.7970   21.6349 Q=    0.4170 A=    0.0000 R=    0.0000 C=    0.0000
 XYZ=   14.7163    5.1752   11.2613 Q=   -0.8340 A=    0.0000 R=    0.0000 C=    0.0000
 XYZ=   15.5422    5.5637   10.9730 Q=    0.4170 A=    0.0000 R=    0.0000 C=    0.0000
 XYZ=   14.8771    4.9152   12.1684 Q=    0.4170 A=    0.0000 R=    0.0000 C=    0.0000
 XYZ=   22.8536    5.6286   11.5375 Q=   -0.8340 A=    0.0000 R=    0.0000 C=    0.0000
 XYZ=   23.7752    5.5985   11.7942 Q=    0.4170 A=    0.0000 R=    0.0000 C=    0.0000
 XYZ=   22.5263    4.7467   11.7146 Q=    0.4170 A=    0.0000 R=    0.0000 C=    0.0000
 XYZ=   15.5002    2.4390   19.3745 Q=   -0.8340 A=    0.0000 R=    0.0000 C=    0.0000
 XYZ=   15.0907    2.1172   20.1776 Q=    0.4170 A=    0.0000 R=    0.0000 C=    0.0000
 XYZ=   15.4706    1.6936   18.7747 Q=    0.4170 A=    0.0000 R=    0.0000 C=    0.0000
 XYZ=   18.0181   22.1293   21.7707 Q=   -0.8340 A=    0.0000 R=    0.0000 C=    0.0000
 XYZ=   17.3631   22.6596   22.2246 Q=    0.4170 A=    0.0000 R=    0.0000 C=    0.0000
 XYZ=   18.5686   21.7774   22.4703 Q=    0.4170 A=    0.0000 R=    0.0000 C=    0.0000
 XYZ=   10.3117   22.9305   19.2831 Q=   -0.8340 A=    0.0000 R=    0.0000 C=    0.0000
 XYZ=    9.9838   22.8003   18.3933 Q=    0.4170 A=    0.0000 R=    0.0000 C=    0.0000
 XYZ=    9.6584   23.4924   19.6998 Q=    0.4170 A=    0.0000 R=    0.0000 C=    0.0000
 XYZ=   15.9555   16.4920    2.7658 Q=   -0.8340 A=    0.0000 R=    0.0000 C=    0.0000
 XYZ=   16.8137   16.0791    2.6702 Q=    0.4170 A=    0.0000 R=    0.0000 C=    0.0000
 XYZ=   15.8035   16.5136    3.7106 Q=    0.4170 A=    0.0000 R=    0.0000 C=    0.0000
 XYZ=   13.6615   27.1314   22.1471 Q=   -0.8340 A=    0.0000 R=    0.0000 C=    0.0000
 XYZ=   13.3552   26.8770   21.2767 Q=    0.4170 A=    0.0000 R=    0.0000 C=    0.0000
 XYZ=   12.9076   27.5618   22.5505 Q=    0.4170 A=    0.0000 R=    0.0000 C=    0.0000
 XYZ=   20.0429   23.6294   20.1657 Q=   -0.8340 A=    0.0000 R=    0.0000 C=    0.0000
 XYZ=   20.9075   23.5861   20.5741 Q=    0.4170 A=    0.0000 R=    0.0000 C=    0.0000
 XYZ=   19.5812   22.8601   20.4992 Q=    0.4170 A=    0.0000 R=    0.0000 C=    0.0000
 XYZ=   19.0912    4.5832   26.8190 Q=   -0.8340 A=    0.0000 R=    0.0000 C=    0.0000
 XYZ=   18.8948    5.0824   26.0262 Q=    0.4170 A=    0.0000 R=    0.0000 C=    0.0000
 XYZ=   19.0234    5.2225   27.5281 Q=    0.4170 A=    0.0000 R=    0.0000 C=    0.0000
 XYZ=   11.5684    9.7793   25.2992 Q=   -0.8340 A=    0.0000 R=    0.0000 C=    0.0000
 XYZ=   10.8825   10.3909   25.5669 Q=    0.4170 A=    0.0000 R=    0.0000 C=    0.0000
 XYZ=   11.1682    8.9147   25.3912 Q=    0.4170 A=    0.0000 R=    0.0000 C=    0.0000
 XYZ=   11.8980   27.0833   24.3971 Q=   -0.8340 A=    0.0000 R=    0.0000 C=    0.0000
 XYZ=   11.3623   26.4991   24.9339 Q=    0.4170 A=    0.0000 R=    0.0000 C=    0.0000
 XYZ=   12.3116   27.6749   25.0258 Q=    0.4170 A=    0.0000 R=    0.0000 C=    0.0000
 XYZ=   11.2419   18.4999    5.2303 Q=   -0.8340 A=    0.0000 R=    0.0000 C=    0.0000
 XYZ=   11.5398   18.4126    4.3249 Q=    0.4170 A=    0.0000 R=    0.0000 C=    0.0000
 XYZ=   11.8071   17.9082    5.7271 Q=    0.4170 A=    0.0000 R=    0.0000 C=    0.0000
 XYZ=   22.8719    9.1114    8.4837 Q=   -0.8340 A=    0.0000 R=    0.0000 C=    0.0000
 XYZ=   22.8409    8.8683    9.4090 Q=    0.4170 A=    0.0000 R=    0.0000 C=    0.0000
 XYZ=   23.7846    8.9741    8.2300 Q=    0.4170 A=    0.0000 R=    0.0000 C=    0.0000
 XYZ=   24.4593   25.6231   24.0401 Q=   -0.8340 A=    0.0000 R=    0.0000 C=    0.0000
 XYZ=   24.5420   24.6866   24.2200 Q=    0.4170 A=    0.0000 R=    0.0000 C=    0.0000
 XYZ=   23.9582   25.6677   23.2258 Q=    0.4170 A=    0.0000 R=    0.0000 C=    0.0000
 XYZ=   17.8016    2.6249   24.0022 Q=   -0.8340 A=    0.0000 R=    0.0000 C=    0.0000
 XYZ=   17.2356    3.3368   23.7038 Q=    0.4170 A=    0.0000 R=    0.0000 C=    0.0000
 XYZ=   17.4226    1.8374   23.6119 Q=    0.4170 A=    0.0000 R=    0.0000 C=    0.0000
 XYZ=   27.2117   10.9946   24.9044 Q=   -0.8340 A=    0.0000 R=    0.0000 C=    0.0000
 XYZ=   26.8904   10.6858   24.0573 Q=    0.4170 A=    0.0000 R=    0.0000 C=    0.0000
 XYZ=   26.4222   11.1101   25.4330 Q=    0.4170 A=    0.0000 R=    0.0000 C=    0.0000
 XYZ=   20.9335   15.2873   29.7608 Q=   -0.8340 A=    0.0000 R=    0.0000 C=    0.0000
 XYZ=   21.4750   15.3173   30.5495 Q=    0.4170 A=    0.0000 R=    0.0000 C=    0.0000
 XYZ=   20.8192   16.2049   29.5131 Q=    0.4170 A=    0.0000 R=    0.0000 C=    0.0000
 XYZ=    9.8960    9.2845   17.1255 Q=   -0.8340 A=    0.0000 R=    0.0000 C=    0.0000
 XYZ=    9.8031   10.2040   17.3750 Q=    0.4170 A=    0.0000 R=    0.0000 C=    0.0000
 XYZ=    9.2345    8.8271   17.6446 Q=    0.4170 A=    0.0000 R=    0.0000 C=    0.0000
 XYZ=   17.5135    9.1260   17.0699 Q=   -0.8340 A=    0.0000 R=    0.0000 C=    0.0000
 XYZ=   16.9973    8.4578   17.5207 Q=    0.4170 A=    0.0000 R=    0.0000 C=    0.0000
 XYZ=   16.9355    9.4505   16.3793 Q=    0.4170 A=    0.0000 R=    0.0000 C=    0.0000
 XYZ=    7.5139   11.1260   12.1002 Q=   -0.8340 A=    0.0000 R=    0.0000 C=    0.0000
 XYZ=    7.5978   10.9361   13.0346 Q=    0.4170 A=    0.0000 R=    0.0000 C=    0.0000
 XYZ=    7.2863   12.0550   12.0635 Q=    0.4170 A=    0.0000 R=    0.0000 C=    0.0000
 XYZ=   26.2036   14.2823   16.8513 Q=   -0.8340 A=    0.0000 R=    0.0000 C=    0.0000
 XYZ=   26.2413   13.4142   17.2528 Q=    0.4170 A=    0.0000 R=    0.0000 C=    0.0000
 XYZ=   25.4440   14.2450   16.2700 Q=    0.4170 A=    0.0000 R=    0.0000 C=    0.0000
 XYZ=    8.9616   17.8226   14.9086 Q=   -0.8340 A=    0.0000 R=    0.0000 C=    0.0000
 XYZ=    9.2885   17.3005   14.1760 Q=    0.4170 A=    0.0000 R=    0.0000 C=    0.0000
 XYZ=    9.6784   17.8212   15.5430 Q=    0.4170 A=    0.0000 R=    0.0000 C=    0.0000
 XYZ=   29.1494   15.9070    9.4288 Q=   -0.8340 A=    0.0000 R=    0.0000 C=    0.0000
 XYZ=   30.0096   16.2825    9.2407 Q=    0.4170 A=    0.0000 R=    0.0000 C=    0.0000
 XYZ=   29.1696   15.0430    9.0175 Q=    0.4170 A=    0.0000 R=    0.0000 C=    0.0000
 XYZ=   26.7211   20.6663   15.2872 Q=   -0.8340 A=    0.0000 R=    0.0000 C=    0.0000
 XYZ=   27.5179   21.0727   14.9467 Q=    0.4170 A=    0.0000 R=    0.0000 C=    0.0000
 XYZ=   26.0297   20.9589   14.6933 Q=    0.4170 A=    0.0000 R=    0.0000 C=    0.0000
 XYZ=   23.5961    8.6246   23.2592 Q=   -0.8340 A=    0.0000 R=    0.0000 C=    0.0000
 XYZ=   22.8831    8.0949   23.6160 Q=    0.4170 A=    0.0000 R=    0.0000 C=    0.0000
 XYZ=   24.1508    8.8203   24.0144 Q=    0.4170 A=    0.0000 R=    0.0000 C=    0.0000
 XYZ=   11.7740    4.1307    8.8024 Q=   -0.8340 A=    0.0000 R=    0.0000 C=    0.0000
 XYZ=   12.3593    3.3778    8.8845 Q=    0.4170 A=    0.0000 R=    0.0000 C=    0.0000
 XYZ=   12.3601    4.8852    8.7447 Q=    0.4170 A=    0.0000 R=    0.0000 C=    0.0000
 XYZ=   12.4159    8.3180   28.2873 Q=   -0.8340 A=    0.0000 R=    0.0000 C=    0.0000
 XYZ=   11.7268    7.9630   27.7258 Q=    0.4170 A=    0.0000 R=    0.0000 C=    0.0000
 XYZ=   11.9772    8.5034   29.1177 Q=    0.4170 A=    0.0000 R=    0.0000 C=    0.0000
 XYZ=    9.7500   10.4205   10.6154 Q=   -0.8340 A=    0.0000 R=    0.0000 C=    0.0000
 XYZ=    9.0192   10.4644   11.2320 Q=    0.4170 A=    0.0000 R=    0.0000 C=    0.0000
 XYZ=   10.2290    9.6308   10.8670 Q=    0.4170 A=    0.0000 R=    0.0000 C=    0.0000
 XYZ=   30.3120   14.4153   17.8235 Q=   -0.8340 A=    0.0000 R=    0.0000 C=    0.0000
 XYZ=   29.7967   15.1457   18.1658 Q=    0.4170 A=    0.0000 R=    0.0000 C=    0.0000
 XYZ=   31.2120   14.6152   18.0809 Q=    0.4170 A=    0.0000 R=    0.0000 C=    0.0000
 XYZ=   11.6617   14.3816   30.6763 Q=   -0.8340 A=    0.0000 R=    0.0000 C=    0.0000
 XYZ=   12.0896   14.3662   29.8202 Q=    0.4170 A=    0.0000 R=    0.0000 C=    0.0000
 XYZ=   10.9576   15.0230   30.5812 Q=    0.4170 A=    0.0000 R=    0.0000 C=    0.0000
 XYZ=   15.4330   32.2583   17.2471 Q=   -0.8340 A=    0.0000 R=    0.0000 C=    0.0000
 XYZ=   14.8398   32.7509   16.6799 Q=    0.4170 A=    0.0000 R=    0.0000 C=    0.0000
 XYZ=   15.5172   31.4046   16.8224 Q=    0.4170 A=    0.0000 R=    0.0000 C=    0.0000
 XYZ=   11.7516   15.0742    9.7737 Q=   -0.8340 A=    0.0000 R=    0.0000 C=    0.0000
 XYZ=   11.8669   14.1842   10.1068 Q=    0.4170 A=    0.0000 R=    0.0000 C=    0.0000
 XYZ=   11.9950   15.6385   10.5076 Q=    0.4170 A=    0.0000 R=    0.0000 C=    0.0000
 XYZ=    6.3737    7.4141   21.4211 Q=   -0.8340 A=    0.0000 R=    0.0000 C=    0.0000
 XYZ=    5.6878    8.0401   21.6531 Q=    0.4170 A=    0.0000 R=    0.0000 C=    0.0000
 XYZ=    5.9961    6.8970   20.7096 Q=    0.4170 A=    0.0000 R=    0.0000 C=    0.0000
 XYZ=    4.3234   24.0573   22.7703 Q=   -0.8340 A=    0.0000 R=    0.0000 C=    0.0000
 XYZ=    3.5207   23.6732   22.4178 Q=    0.4170 A=    0.0000 R=    0.0000 C=    0.0000
 XYZ=    4.8570   23.3049   23.0264 Q=    0.4170 A=    0.0000 R=    0.0000 C=    0.0000
 XYZ=   15.5601   18.9925    8.4603 Q=   -0.8340 A=    0.0000 R=    0.0000 C=    0.0000
 XYZ=   16.2247   18.4555    8.8918 Q=    0.4170 A=    0.0000 R=    0.0000 C=    0.0000
 XYZ=   15.7241   19.8799    8.7796 Q=    0.4170 A=    0.0000 R=    0.0000 C=    0.0000
 XYZ=    7.6671    8.1273   18.3266 Q=   -0.8340 A=    0.0000 R=    0.0000 C=    0.0000
 XYZ=    7.8523    7.2513   17.9882 Q=    0.4170 A=    0.0000 R=    0.0000 C=    0.0000
 XYZ=    6.7201    8.2268   18.2297 Q=    0.4170 A=    0.0000 R=    0.0000 C=    0.0000
 XYZ=   27.5121   23.1481   11.4356 Q=   -0.8340 A=    0.0000 R=    0.0000 C=    0.0000
 XYZ=   27.9543   22.7353   10.6937 Q=    0.4170 A=    0.0000 R=    0.0000 C=    0.0000
 XYZ=   28.1157   23.8327   11.7241 Q=    0.4170 A=    0.0000 R=    0.0000 C=    0.0000
 XYZ=   21.5923   21.5486   12.0404 Q=   -0.8340 A=    0.0000 R=    0.0000 C=    0.0000
 XYZ=   21.0877   22.2113   11.5689 Q=    0.4170 A=    0.0000 R=    0.0000 C=    0.0000
 XYZ=   22.4845   21.8950   12.0598 Q=    0.4170 A=    0.0000 R=    0.0000 C=    0.0000
 XYZ=    6.0865   12.2868   23.9224 Q=   -0.8340 A=    0.0000 R=    0.0000 C=    0.0000
 XYZ=    6.0030   12.3381   24.8746 Q=    0.4170 A=    0.0000 R=    0.0000 C=    0.0000
 XYZ=    6.9982   12.0352   23.7747 Q=    0.4170 A=    0.0000 R=    0.0000 C=    0.0000
 XYZ=   12.6235    9.2113   17.5499 Q=   -0.8340 A=    0.0000 R=    0.0000 C=    0.0000
 XYZ=   11.6778    9.3234   17.4539 Q=    0.4170 A=    0.0000 R=    0.0000 C=    0.0000
 XYZ=   12.7341    8.8476   18.4284 Q=    0.4170 A=    0.0000 R=    0.0000 C=    0.0000
 XYZ=   14.0915   18.0650    1.7584 Q=   -0.8340 A=    0.0000 R=    0.0000 C=    0.0000
 XYZ=   14.7055   17.6175    2.3406 Q=    0.4170 A=    0.0000 R=    0.0000 C=    0.0000
 XYZ=   14.1144   17.5557    0.9482 Q=    0.4170 A=    0.0000 R=    0.0000 C=    0.0000
 XYZ=   14.3109   21.9992   26.3333 Q=   -0.8340 A=    0.0000 R=    0.0000 C=    0.0000
 XYZ=   13.6584   22.6984   26.3725 Q=    0.4170 A=    0.0000 R=    0.0000 C=    0.0000
 XYZ=   15.1189   22.4072   26.6446 Q=    0.4170 A=    0.0000 R=    0.0000 C=    0.0000
 XYZ=   19.1482    7.4007   15.5527 Q=   -0.8340 A=    0.0000 R=    0.0000 C=    0.0000
 XYZ=   18.5838    8.1175   15.8424 Q=    0.4170 A=    0.0000 R=    0.0000 C=    0.0000
 XYZ=   18.5984    6.6200   15.6204 Q=    0.4170 A=    0.0000 R=    0.0000 C=    0.0000
 XYZ=    6.2372    8.6505   11.7030 Q=   -0.8340 A=    0.0000 R=    0.0000 C=    0.0000
 XYZ=    6.7946    9.3502   12.0437 Q=    0.4170 A=    0.0000 R=    0.0000 C=    0.0000
 XYZ=    5.5867    8.5058   12.3901 Q=    0.4170 A=    0.0000 R=    0.0000 C=    0.0000
 XYZ=   18.1590   22.9030   17.8480 Q=   -0.8340 A=    0.0000 R=    0.0000 C=    0.0000
 XYZ=   17.3590   23.1155   18.3287 Q=    0.4170 A=    0.0000 R=    0.0000 C=    0.0000
 XYZ=   17.9942   22.0350   17.4797 Q=    0.4170 A=    0.0000 R=    0.0000 C=    0.0000
 XYZ=   14.5504   22.9083    7.4958 Q=   -0.8340 A=    0.0000 R=    0.0000 C=    0.0000
 XYZ=   14.1655   23.7838    7.4554 Q=    0.4170 A=    0.0000 R=    0.0000 C=    0.0000
 XYZ=   15.2962   22.9462    6.8970 Q=    0.4170 A=    0.0000 R=    0.0000 C=    0.0000
 XYZ=    3.5277   19.4565   12.1858 Q=   -0.8340 A=    0.0000 R=    0.0000 C=    0.0000
 XYZ=    4.0590   19.3986   11.3917 Q=    0.4170 A=    0.0000 R=    0.0000 C=    0.0000
 XYZ=    2.7638   19.9716   11.9263 Q=    0.4170 A=    0.0000 R=    0.0000 C=    0.0000
 XYZ=   23.4761   19.5579   14.9179 Q=   -0.8340 A=    0.0000 R=    0.0000 C=    0.0000
 XYZ=   23.3880   20.1388   15.6736 Q=    0.4170 A=    0.0000 R=    0.0000 C=    0.0000
 XYZ=   22.6309   19.6143   14.4720 Q=    0.4170 A=    0.0000 R=    0.0000 C=    0.0000
 XYZ=   24.4119    9.6430   15.9417 Q=   -0.8340 A=    0.0000 R=    0.0000 C=    0.0000
 XYZ=   23.9100    9.1533   16.5933 Q=    0.4170 A=    0.0000 R=    0.0000 C=    0.0000
 XYZ=   24.0318   10.5214   15.9565 Q=    0.4170 A=    0.0000 R=    0.0000 C=    0.0000
 XYZ=   13.1582   18.2823    7.5496 Q=   -0.8340 A=    0.0000 R=    0.0000 C=    0.0000
 XYZ=   12.8397   17.7591    8.2852 Q=    0.4170 A=    0.0000 R=    0.0000 C=    0.0000
 XYZ=   13.9838   18.6544    7.8596 Q=    0.4170 A=    0.0000 R=    0.0000 C=    0.0000
 XYZ=   24.9398   17.2179   15.3503 Q=   -0.8340 A=    0.0000 R=    0.0000 C=    0.0000
 XYZ=   24.5514   16.3463   15.4257 Q=    0.4170 A=    0.0000 R=    0.0000 C=    0.0000
 XYZ=   24.1919   17.8050   15.2396 Q=    0.4170 A=    0.0000 R=    0.0000 C=    0.0000
 XYZ=   17.2649   14.2012   31.1556 Q=   -0.8340 A=    0.0000 R=    0.0000 C=    0.0000
 XYZ=   17.5369   14.5217   30.2956 Q=    0.4170 A=    0.0000 R=    0.0000 C=    0.0000
 XYZ=   16.8426   13.3612   30.9761 Q=    0.4170 A=    0.0000 R=    0.0000 C=    0.0000
 XYZ=    8.2761   24.8033   10.1361 Q=   -0.8340 A=    0.0000 R=    0.0000 C=    0.0000
 XYZ=    8.2452   24.2015   10.8799 Q=    0.4170 A=    0.0000 R=    0.0000 C=    0.0000
 XYZ=    8.6973   25.5904   10.4816 Q=    0.4170 A=    0.0000 R=    0.0000 C=    0.0000
 XYZ=   26.5807   18.6053   26.1171 Q=   -0.8340 A=    0.0000 R=    0.0000 C=    0.0000
 XYZ=   26.5785   18.2169   25.2423 Q=    0.4170 A=    0.0000 R=    0.0000 C=    0.0000
 XYZ=   27.2803   19.2580   26.0881 Q=    0.4170 A=    0.0000 R=    0.0000 C=    0.0000
 XYZ=   25.5020   21.8837   19.9317 Q=   -0.8340 A=    0.0000 R=    0.0000 C=    0.0000
 XYZ=   24.9027   21.9878   19.1925 Q=    0.4170 A=    0.0000 R=    0.0000 C=    0.0000
 XYZ=   26.3396   21.6518   19.5307 Q=    0.4170 A=    0.0000 R=    0.0000 C=    0.0000
 XYZ=   22.7024   14.4775   10.8603 Q=   -0.8340 A=    0.0000 R=    0.0000 C=    0.0000
 XYZ=   23.2438   14.2006   10.1210 Q=    0.4170 A=    0.0000 R=    0.0000 C=    0.0000
 XYZ=   22.2330   15.2473   10.5389 Q=    0.4170 A=    0.0000 R=    0.0000 C=    0.0000
 XYZ=   10.9745    9.3666    5.3260 Q=   -0.8340 A=    0.0000 R=    0.0000 C=    0.0000
 XYZ=   10.2972    8.8706    4.8661 Q=    0.4170 A=    0.0000 R=    0.0000 C=    0.0000
 XYZ=   10.5320   10.1638    5.6174 Q=    0.4170 A=    0.0000 R=    0.0000 C=    0.0000
 XYZ=    5.7047   16.7915   10.7142 Q=   -0.8340 A=    0.0000 R=    0.0000 C=    0.0000
 XYZ=    6.2209   16.0242   10.9612 Q=    0.4170 A=    0.0000 R=    0.0000 C=    0.0000
 XYZ=    4.9018   16.7168   11.2301 Q=    0.4170 A=    0.0000 R=    0.0000 C=    0.0000
 XYZ=   24.4131   18.9367   18.6244 Q=   -0.8340 A=    0.0000 R=    0.0000 C=    0.0000
 XYZ=   25.2964   18.6843   18.3554 Q=    0.4170 A=    0.0000 R=    0.0000 C=    0.0000
 XYZ=   24.5488   19.5917   19.3091 Q=    0.4170 A=    0.0000 R=    0.0000 C=    0.0000
 XYZ=   22.1901   28.4555    9.9554 Q=   -0.8340 A=    0.0000 R=    0.0000 C=    0.0000
 XYZ=   21.4423   28.9728   10.2544 Q=    0.4170 A=    0.0000 R=    0.0000 C=    0.0000
 XYZ=   22.9237   28.7649   10.4867 Q=    0.4170 A=    0.0000 R=    0.0000 C=    0.0000
 XYZ=   14.5799   27.5450   11.7005 Q=   -0.8340 A=    0.0000 R=    0.0000 C=    0.0000
 XYZ=   15.5069   27.3198   11.6225 Q=    0.4170 A=    0.0000 R=    0.0000 C=    0.0000
 XYZ=   14.1256   26.7027   11.6783 Q=    0.4170 A=    0.0000 R=    0.0000 C=    0.0000
 XYZ=   29.1949   18.7811   12.0611 Q=   -0.8340 A=    0.0000 R=    0.0000 C=    0.0000
 XYZ=   29.4444   19.0576   12.9429 Q=    0.4170 A=    0.0000 R=    0.0000 C=    0.0000
 XYZ=   28.8763   17.8853   12.1716 Q=    0.4170 A=    0.0000 R=    0.0000 C=    0.0000
 XYZ=   28.0657    6.2233   15.8850 Q=   -0.8340 A=    0.0000 R=    0.0000 C=    0.0000
 XYZ=   27.5298    6.9837   15.6593 Q=    0.4170 A=    0.0000 R=    0.0000 C=    0.0000
 XYZ=   27.5099    5.7012   16.4635 Q=    0.4170 A=    0.0000 R=    0.0000 C=    0.0000
 XYZ=   17.8879   13.8745    7.7944 Q=   -0.8340 A=    0.0000 R=    0.0000 C=    0.0000
 XYZ=   17.5467   14.6731    8.1970 Q=    0.4170 A=    0.0000 R=    0.0000 C=    0.0000
 XYZ=   18.1580   13.3296    8.5336 Q=    0.4170 A=    0.0000 R=    0.0000 C=    0.0000
 XYZ=   15.5049    8.1048   21.4712 Q=   -0.8340 A=    0.0000 R=    0.0000 C=    0.0000
 XYZ=   14.9325    7.3459   21.5834 Q=    0.4170 A=    0.0000 R=    0.0000 C=    0.0000
 XYZ=   16.3825    7.7738   21.6621 Q=    0.4170 A=    0.0000 R=    0.0000 C=    0.0000
 XYZ=   23.5538   14.3912   28.7280 Q=   -0.8340 A=    0.0000 R=    0.0000 C=    0.0000
 XYZ=   23.4948   15.1010   28.0885 Q=    0.4170 A=    0.0000 R=    0.0000 C=    0.0000
 XYZ=   22.8412   14.5629   29.3435 Q=    0.4170 A=    0.0000 R=    0.0000 C=    0.0000
 XYZ=    7.4059   23.4186   20.4917 Q=   -0.8340 A=    0.0000 R=    0.0000 C=    0.0000
 XYZ=    7.9808   23.5697   21.2420 Q=    0.4170 A=    0.0000 R=    0.0000 C=    0.0000
 XYZ=    6.8975   22.6438   20.7311 Q=    0.4170 A=    0.0000 R=    0.0000 C=    0.0000
 XYZ=    9.2502   14.7069   27.3010 Q=   -0.8340 A=    0.0000 R=    0.0000 C=    0.0000
 XYZ=   10.0155   15.2780   27.2340 Q=    0.4170 A=    0.0000 R=    0.0000 C=    0.0000
 XYZ=    8.6019   15.1054   26.7203 Q=    0.4170 A=    0.0000 R=    0.0000 C=    0.0000
 XYZ=   23.5980   12.1975   15.7422 Q=   -0.8340 A=    0.0000 R=    0.0000 C=    0.0000
 XYZ=   23.5966   12.7913   14.9914 Q=    0.4170 A=    0.0000 R=    0.0000 C=    0.0000
 XYZ=   23.3207   12.7418   16.4791 Q=    0.4170 A=    0.0000 R=    0.0000 C=    0.0000
 XYZ=    9.3924   25.1401    7.4876 Q=   -0.8340 A=    0.0000 R=    0.0000 C=    0.0000
 XYZ=    8.8295   25.1013    8.2608 Q=    0.4170 A=    0.0000 R=    0.0000 C=    0.0000
 XYZ=    9.8475   24.2981    7.4795 Q=    0.4170 A=    0.0000 R=    0.0000 C=    0.0000
 XYZ=   26.7725   16.2389   10.7196 Q=   -0.8340 A=    0.0000 R=    0.0000 C=    0.0000
 XYZ=   27.5779   16.1421   10.2116 Q=    0.4170 A=    0.0000 R=    0.0000 C=    0.0000
 XYZ=   27.0661   16.2777   11.6298 Q=    0.4170 A=    0.0000 R=    0.0000 C=    0.0000
 XYZ=   21.7072    9.9353   20.3604 Q=   -0.8340 A=    0.0000 R=    0.0000 C=    0.0000
 XYZ=   22.2169    9.2325   20.7635 Q=    0.4170 A=    0.0000 R=    0.0000 C=    0.0000
 XYZ=   22.0837   10.0335   19.4858 Q=    0.4170 A=    0.0000 R=    0.0000 C=    0.0000
 XYZ=   26.4413    9.6068   12.2996 Q=   -0.8340 A=    0.0000 R=    0.0000 C=    0.0000
 XYZ=   25.8747   10.3749   12.3723 Q=    0.4170 A=    0.0000 R=    0.0000 C=    0.0000
 XYZ=   27.3273    9.9659   12.2518 Q=    0.4170 A=    0.0000 R=    0.0000 C=    0.0000
 XYZ=    4.8605   10.6184   16.7196 Q=   -0.8340 A=    0.0000 R=    0.0000 C=    0.0000
 XYZ=    5.0667    9.6939   16.8578 Q=    0.4170 A=    0.0000 R=    0.0000 C=    0.0000
 XYZ=    5.7117   11.0560   16.7149 Q=    0.4170 A=    0.0000 R=    0.0000 C=    0.0000
 XYZ=   23.4655    7.7964   17.8851 Q=   -0.8340 A=    0.0000 R=    0.0000 C=    0.0000
 XYZ=   24.1078    7.6622   18.5821 Q=    0.4170 A=    0.0000 R=    0.0000 C=    0.0000
 XYZ=   22.6427    7.4721   18.2513 Q=    0.4170 A=    0.0000 R=    0.0000 C=    0.0000
 XYZ=    5.0394   23.1889   16.6844 Q=   -0.8340 A=    0.0000 R=    0.0000 C=    0.0000
 XYZ=    5.7116   23.5258   17.2768 Q=    0.4170 A=    0.0000 R=    0.0000 C=    0.0000
 XYZ=    5.4800   22.4978   16.1897 Q=    0.4170 A=    0.0000 R=    0.0000 C=    0.0000
 XYZ=   12.4645   12.6942    5.9223 Q=   -0.8340 A=    0.0000 R=    0.0000 C=    0.0000
 XYZ=   13.1869   12.4256    5.3546 Q=    0.4170 A=    0.0000 R=    0.0000 C=    0.0000
 XYZ=   12.8408   12.7017    6.8023 Q=    0.4170 A=    0.0000 R=    0.0000 C=    0.0000
[...]
 00014741,0.00038593,-0.00012089,-0.00009857,-0.00009403,-0.00002347,-0
 .00013212,-0.00019443,-0.00003091,0.00020669,-0.00030064,0.00001623,-0
 .00008888,0.00005389,0.00010294,-0.00012391,0.00020933,0.00002016,0.00
 003270,0.00032795,-0.00000621,-0.00000517,-0.00009773,-0.00003936,-0.0
 0002337,-0.00017043,0.00004238,0.00009017,-0.00038535,-0.00005394,-0.0
 0012287,0.00022873,-0.00002654,-0.00004654,0.00020175,-0.31080840,0.11
 131968,0.23065753,-0.00050837,0.00004543,0.00093154,-0.00001947,0.0000
 3448,0.00007586,0.00002063,0.00002270,-0.00008778,-0.00022642,0.000098
 44,0.00033837,0.00024892,-0.00011336,-0.00029774,0.00001624,0.00000285
 ,-0.00001421,-0.00000173,0.00000732,0.00000327,0.00012374,-0.00012912,
 -0.00012584,0.00030043,0.00015974,-0.00113199,0.00011040,0.00025067,-0
 .00049544,0.00009728,-0.00009422,-0.00000107,-0.00006069,-0.00003877,0
 .00016919,-0.00004482,0.00001084,-0.00002641,0.00001846,-0.00000313,0.
 00000753,0.00002441,-0.00000747,0.00002025,0.00002423,0.00000736,-0.00
 004351,-0.00000960,0.00000137,0.00002213,-0.00001210,-0.00000581,0.000
 01434,-0.00102711,0.00048386,-0.00019882,0.00096394,0.00071007,-0.0002
 1898,0.00027072,-0.00083716,0.00044133,0.00006329,-0.00005244,-0.00004
 118,-0.00003234,0.00002535,0.00002897,-0.00005970,0.00005036,0.0000201
 1,-0.00002530,0.00000500,-0.00005290,0.00001310,-0.00000053,0.00002468
 ,0.00002382,-0.00001046,0.00002473,-0.00003753,-0.00012143,-0.00022141
 ,-0.00003351,0.00003288,0.00007433,-0.00003998,0.00012984,0.00014964,-
 0.00006306,0.00003865,-0.00002899,0.00001755,-0.00001228,0.00000789,0.
 00004713,-0.00002617,0.00002516,0.00000049,0.00001644,-0.00004971,-0.0
 0000173,-0.00000766,0.00001364,0.00000689,-0.00000065,0.00003823,-0.00
 038458,-0.00037328,0.00034252,0.00035030,0.00003902,0.00002567,0.00006
 356,0.00005491,-0.00017424,0.00001810,0.00005159,-0.00003091,0.0000001
 9,-0.00002341,0.00000836,-0.00001156,-0.00002918,0.00002387,0.00005022
 ,0.00003255,-0.00004221,-0.00002697,-0.00000138,0.00001882,-0.00000842
 ,-0.00003074,0.00001899,0.00001437,0.00003717,-0.00003593,-0.00000561,
 -0.00001385,0.00000923,-0.00000561,-0.00001581,0.00002120,-0.00027815,
 -0.00056999,-0.00067416,-0.00012654,0.00007111,-0.00004296,-0.00064852
 ,0.00010751,0.00020855,-0.00000850,-0.00003087,-0.00006942,-0.00000030
 ,0.00002935,0.00005323,0.00001647,0.00000699,0.00003195,-0.00013796,0.
 00006212,-0.00002757,0.00005762,-0.00004725,0.00002444,0.00007631,0.00
 002311,-0.00000051,-0.00033998,0.00006534,0.00002185,0.00018511,0.0000
 1748,0.00008283,0.00031217,-0.00008141,-0.00004616,0.00005699,0.000004
 77,-0.00003716,-0.00002361,-0.00000027,0.00002069,-0.00002578,-0.00000
 514,0.00001947,0.00009634,0.00007647,-0.00008714,-0.00003604,-0.000002
 42,0.00004456,-0.00002722,-0.00008007,0.00002319,-0.00015933,0.0000225
 6,0.00015769,0.00003560,0.00000996,-0.00003969,0.00006292,0.00000993,-
 0.00009132,0.00002348,0.00010491,-0.00004667,-0.00001826,-0.00002443,0
 .00000434,0.00002095,-0.00004925,0.00002207,-0.00015156,0.00001216,-0.
 00003412,0.00002956,-0.00000363,0.00002692,0.00013978,-0.00003961,-0.0
 0003666,-0.17625861,0.15362717,0.14960766,0.19750158,-0.00058570,0.000
 60970,0.00058930,-0.00016370,0.00009910,0.00018394,0.00005202,-0.00015
 028,0.00000896,-0.00005249,0.00018391,-0.00004539,0.00023014,-0.000329
 29,-0.00017307,0.00000322,0.00000422,-0.00000238,-0.00000094,-0.000006
 92,0.00001080,0.00008913,-0.00024353,0.00003315,0.00077013,-0.00088805
 ,-0.00076772,0.00021168,0.00002519,-0.00035901,-0.00006155,0.00006043,
 0.00007000,0.00019831,0.00007849,-0.00031753,0.00001406,-0.00002137,-0
 .00002633,-0.00000227,0.00000721,0.00001260,-0.00000759,0.00001350,0.0
 0002004,0.00001143,-0.00002287,0.00000283,-0.00000129,0.00001224,-0.00
 000322,-0.00000397,0.00000650,-0.00000200,0.00020473,0.00208405,-0.000
 91016,0.00078187,-0.00171953,0.00115470,-0.00088357,-0.00074978,0.0009
 0844,0.00000288,-0.00005732,0.00004176,0.00001859,0.00001187,-0.000030
 55,-0.00003516,0.00006180,-0.00002929,0.00000651,-0.00002239,-0.000016
 28,-0.00000149,0.00001542,0.00000361,-0.00000896,0.00001277,0.00000848
 ,-0.00008534,-0.00001196,0.00010567,0.00006087,0.00004947,-0.00005440,
 0.00002819,-0.00001863,-0.00003930,0.00003330,0.00001744,-0.00011826,-
 0.00001034,-0.00001851,0.00002705,-0.00001820,-0.00002014,0.00013123,0
 .00000937,-0.00001481,-0.00001219,-0.00000383,0.00000365,0.00000239,-0
 .00000119,0.00000918,0.00000900,-0.00020687,-0.00003322,-0.00069144,-0
 .00011724,-0.00001106,0.00044935,0.00004433,0.00012862,0.00016106,0.00
 005274,-0.00000740,-0.00003585,-0.00002774,-0.00000487,0.00002082,-0.0
 0002229,0.00001406,0.00001663,0.00003520,-0.00003188,-0.00000491,-0.00
 001819,0.00001877,-0.00000006,-0.00000848,0.00001210,0.00000370,0.0000
 2212,-0.00001458,-0.00002012,-0.00000965,0.00000285,0.00000852,-0.0000
 0839,0.00001202,0.00001127,-0.00077272,0.00010659,0.00009710,-0.000105
 08,-0.00006637,-0.00012911,-0.00005536,0.00022484,-0.00003126,-0.00001
 055,-0.00004204,0.00000699,0.00000511,0.00002936,-0.00000089,0.0000071
 8,0.00002319,-0.00000704,0.00012890,0.00010122,-0.00025904,-0.00012429
 ,-0.00010437,0.00011705,-0.00003183,-0.00009151,0.00010591,-0.00003176
 ,-0.00004900,0.00013919,0.00003692,0.00001015,-0.00004315,0.00003100,-
 0.00001750,-0.00017947,0.00000276,-0.00003328,0.00001446,0.00000043,0.
 00001539,-0.00000743,-0.00001142,0.00002117,-0.00000267,0.00010033,-0.
 00012451,-0.00002703,-0.00001797,0.00001356,0.00001204,-0.00011751,0.0
 0010961,0.00007648,0.00005789,-0.00011635,-0.00020312,0.00000341,0.000
 01825,0.00006348,0.00001473,0.00008751,0.00005198,0.00020726,-0.000019
 69,-0.00007362,-0.00005151,0.00000827,0.00000415,-0.00011927,-0.000065
 27,0.00005007,0.00002716,-0.00006958,-0.00003974,-0.00000239,0.0000070
 0,0.00001039,-0.00006042,0.00006223,0.00005003,0.19816299,-0.28003624,
 -0.20157615,-0.17422771,0.26673991,0.00133126,-0.00043139,-0.00173828,
 0.00021718,-0.00011206,-0.00023528,-0.00008886,0.00011146,0.00007324,0
 .00039450,-0.00029369,-0.00031659,-0.00053440,0.00042597,0.00041667,-0
 .00000865,0.00000037,0.00002306,0.00001467,0.00000200,-0.00000759,-0.0
 0030600,0.00036260,0.00007292,-0.00151037,-0.00008616,0.00136075,-0.00
 032956,-0.00031317,0.00079606,-0.00000392,0.00012937,0.00000204,0.0000
 6910,-0.00006514,0.00006501,-0.00002857,-0.00003181,0.00009447,-0.0000
 0032,0.00000641,-0.00003125,0.00001232,0.00002021,-0.00003509,-0.00006
 665,-0.00000352,0.00000900,0.00003174,-0.00000556,-0.00001117,0.000024
 77,0.00000491,-0.00000041,-0.00006672,-0.00038664,-0.00105656,-0.00022
 414,0.00085182,0.00087214,0.00033293,0.00050627,0.00046448,-0.00012970
 ,0.00010011,-0.00004617,0.00003568,-0.00002325,0.00003287,0.00015284,-
 0.00012842,0.00003428,-0.00002503,0.00000218,0.00006654,0.00000894,-0.
 00000871,-0.00003562,0.00001740,0.00000084,-0.00003569,-0.00010105,0.0
 0012767,0.00006006,0.00003031,-0.00005509,-0.00002150,0.00004740,-0.00
 007079,-0.00001749,-0.00002479,-0.00009605,0.00005203,0.00001118,0.000
 04029,-0.00001168,0.00001309,0.00006862,-0.00004061,-0.00005066,-0.000
 03353,0.00003862,0.00001655,0.00000954,-0.00000824,0.00002998,0.000012
 30,-0.00003480,0.00016505,-0.00084494,0.00049223,0.00014886,0.00054626
 ,-0.00028921,-0.00005229,0.00012046,-0.00028623,-0.00004742,-0.0000485
 9,-0.00001751,0.00002094,0.00002714,0.00000335,0.00002974,0.00002720,-
 0.00000441,-0.00010572,-0.00003700,-0.00002175,0.00006792,0.00000605,0
 .00000153,0.00002439,0.00002484,-0.00000279,-0.00004531,-0.00004144,0.
 00001280,0.00001733,0.00001707,-0.00000532,0.00002850,0.00002793,-0.00
 000961,-0.00038594,-0.00019674,-0.00053398,0.00001232,0.00002807,0.000
 05626,-0.00019869,-0.00001849,0.00035952,-0.00002862,0.00005567,0.0000
 6067,0.00002684,-0.00004850,-0.00004243,0.00000530,-0.00001974,-0.0000
 3037,-0.00006870,-0.00018837,-0.00000353,0.00004671,0.00007385,0.00005
 182,0.00002621,0.00009475,-0.00000450,-0.00003658,0.00028474,0.0001993
 2,0.00008272,-0.00008165,-0.00004819,0.00001410,-0.00029672,-0.0001802
 3,-0.00006650,0.00000022,-0.00002221,0.00003538,0.00000070,0.00000308,
 0.00003523,-0.00000276,0.00000943,-0.00012109,-0.00007777,-0.00011860,
 0.00005252,0.00003247,0.00002423,0.00002265,0.00007047,0.00007526,-0.0
 0005117,-0.00003202,0.00026336,-0.00000336,0.00003729,-0.00006152,-0.0
 0003023,0.00002004,-0.00014342,-0.00003146,-0.00003669,-0.00014021,0.0
 0001047,0.00000737,0.00004646,0.00003402,0.00002454,0.00007658,-0.0000
 5365,-0.00000218,0.00017544,0.00002482,0.00005169,-0.00009781,0.000069
 04,-0.00001993,-0.00011459,0.16254326,-0.17430100,-0.15470326,-0.16634
 387,0.18145254,0.15856811,0.00122587,-0.00144724,0.00008697,0.00030001
 ,-0.00008904,-0.00012224,-0.00000299,0.00021583,-0.00012896,-0.0003627
 2,0.00023568,0.00066741,-0.00046314,0.00026633,-0.00062755,-0.00000228
 ,0.00000424,0.00000307,0.00000126,0.00004041,-0.00002325,-0.00003414,-
 0.00009980,-0.00035296,-0.00316309,0.00036139,0.00028696,-0.00017650,0
 .00030356,0.00026818,0.00013654,-0.00008936,-0.00006912,-0.00002374,0.
 00007733,0.00248895,-0.00008536,-0.00000374,0.00000182,0.00002597,-0.0
 0000164,0.00000028,0.00004502,-0.00000477,0.00001997,0.00000774,0.0000
 1963,-0.00010326,0.00000162,0.00000047,0.00004809,-0.00001336,-0.00001
 117,0.00003456,-0.00040477,-0.00098695,0.00011269,-0.00028811,0.000902
 21,-0.00012884,0.00085475,0.00043746,-0.00025166,0.00004309,-0.0001177
 2,-0.00020863,-0.00007692,0.00012669,0.00016542,-0.00001046,0.00003999
 ,0.00013016,-0.00005996,0.00000437,-0.00006298,0.00003038,-0.00000073,
 0.00002506,0.00005040,-0.00001478,0.00002611,-0.00053224,-0.00002433,0
 .00001061,0.00022240,0.00011465,0.00011722,0.00035238,0.00001905,0.000
 04178,-0.00010414,0.00002180,0.00001532,0.00002914,-0.00000235,-0.0000
 0052,0.00006940,-0.00000844,-0.00002769,-0.00002781,0.00001708,-0.0000
 7919,0.00000530,-0.00001139,0.00002459,0.00003228,0.00000627,0.0000572
 6,-0.00005068,-0.00063041,0.00054827,0.00041260,0.00036379,-0.00031709
 ,0.00000316,0.00012408,-0.00027914,-0.00001436,0.00010025,-0.00004416,
 0.00002150,-0.00003123,0.00000105,0.00000334,-0.00006204,0.00004447,0.
 00002991,0.00007248,-0.00012826,-0.00000611,-0.00000646,0.00005379,-0.
 00000166,-0.00006636,0.00003629,0.00000340,0.00006626,-0.00006178,-0.0
 0000370,-0.00002112,0.00001222,0.00000592,-0.00002223,0.00003668,0.000
 94698,-0.00324306,-0.00068416,0.00087279,0.00144440,0.00137518,-0.0006
 9397,-0.00077361,-0.00059410,-0.00007338,-0.00005851,-0.00010481,0.000
 05606,0.00005962,0.00010345,0.00005064,0.00001726,0.00002842,-0.000238
 82,-0.00001358,0.00009250,0.00015192,0.00001269,-0.00002412,0.00010064
 ,0.00008305,-0.00004795,-0.00018113,0.00028029,0.00038336,0.00031381,-
 0.00010173,-0.00013505,-0.00004081,-0.00031709,-0.00036495,0.00013354,
 0.00002959,-0.00014009,-0.00004027,-0.00000109,0.00006542,-0.00004602,
 -0.00003220,0.00006696,0.00014045,0.00041156,-0.00027317,-0.00004538,0
 .00001510,0.00013660,0.00008448,-0.00034216,-0.00005849,-0.00019587,-0
 .00003584,0.00030121,0.00004141,0.00003026,-0.00006283,0.00002414,0.00
 005509,-0.00016506,-0.00017694,0.00024017,0.00003512,0.00001328,-0.000
 06874,-0.00000608,0.00011863,-0.00000919,-0.00000152,-0.00027152,-0.00
 003469,0.00004255,0.00006886,0.00002560,-0.00000662,0.00021620,-0.0000
 3118,-0.00011252,-0.35629644,-0.19388959,0.15566177,-0.01962101,-0.016
 64590,0.00886831,0.37455115,-0.00459180,0.00274571,0.00568181,-0.00061
 433,0.00048981,0.00066554,0.00024119,-0.00048044,-0.00009840,-0.000611
 69,0.00086072,0.00031540,0.00129228,-0.00165204,-0.00087382,0.00005791
 ,-0.00000160,-0.00007295,-0.00001128,-0.00002082,0.00003246,0.00048165
 ,-0.00111390,0.00003473,0.00258215,-0.00047612,-0.00559567,0.00122171,
 0.00053592,-0.00246262,0.00004171,-0.00018773,0.00008567,0.00057722,0.
 00099039,-0.00103273,-0.00000423,-0.00001785,-0.00007178,0.00000706,0.
 00000552,0.00002612,0.00000488,0.00000516,0.00005230,0.00006169,-0.000
 04515,0.00000241,-0.00001708,0.00003128,-0.00000188,-0.00001797,0.0000
 0737,-0.00000551,-0.00055899,0.00096322,0.00007335,0.00065502,-0.00019
 240,-0.00004341,0.00011559,-0.00137793,0.00018329,0.00003372,-0.000211
 08,0.00015684,0.00007761,0.00003253,-0.00010824,-0.00016980,0.00025998
 ,-0.00012047,0.00000439,-0.00003964,-0.00007444,0.00000205,0.00003486,
 0.00002353,-0.00000287,0.00001455,0.00004247,-0.00021121,0.00001589,0.
 00058986,0.00029394,0.00024469,-0.00026486,0.00009280,-0.00029721,-0.0
 0043865,-0.00000389,0.00009103,-0.00013679,-0.00000525,-0.00004121,0.0
 0002939,0.00002029,-0.00007905,0.00013664,0.00004427,-0.00000143,-0.00
 005753,-0.00001459,0.00000067,0.00000760,-0.00001449,0.00001176,0.0000
 5354,-0.00042352,-0.00000306,-0.00028674,0.00033747,-0.00017913,0.0003
 0209,0.00007079,0.00008553,0.00011401,0.00009378,0.00003780,-0.0000325
 5,-0.00003808,-0.00003029,0.00002005,-0.00005329,-0.00001023,0.0000267
 2,0.00015141,-0.00001698,0.00001618,-0.00009342,0.00003157,-0.00000368
 ,-0.00002977,-0.00000546,0.00000923,0.00005556,0.00001407,-0.00003858,
 -0.00001995,-0.00000896,0.00001457,-0.00003150,-0.00000728,0.00002681,
 -0.00179946,-0.00280366,-0.00054326,0.00002220,-0.00012310,0.00009558,
 -0.00182984,0.00119772,-0.00038720,-0.00002992,-0.00013987,-0.00000544
 ,0.00001677,0.00011657,0.00002109,0.00002736,0.00007009,-0.00000990,-0
 .00001359,0.00025662,-0.00017961,-0.00005589,-0.00015296,0.00003978,0.
 00002930,-0.00007243,0.00006223,0.00015400,-0.00009051,0.00019659,-0.0
 0008772,0.00003504,-0.00015928,-0.00017262,-0.00001428,-0.00013795,0.0
 0002526,-0.00007506,0.00005508,-0.00001185,0.00003648,-0.00002357,-0.0
 0004234,0.00004659,-0.00001728,0.00030063,-0.00012087,0.00005859,-0.00
 007849,-0.00000729,0.00000369,-0.00020889,0.00003498,0.00005129,-0.000
 03783,-0.00011128,-0.00014998,0.00002536,0.00001238,0.00005026,0.00003
 476,0.00010165,0.00002566,0.00026836,0.00004044,0.00001375,-0.00007107
 ,0.00001496,-0.00001897,-0.00009730,-0.00010609,-0.00001002,-0.0000815
 1,-0.00012040,-0.00011682,0.00002229,0.00000004,0.00005362,0.00001599,
 0.00007152,0.00007219,-0.23858021,-0.17691430,0.08941082,0.02972070,0.
 01417741,-0.01453820,0.21318402,0.16591632,0.00362873,0.00039325,-0.00
 543182,0.00042111,-0.00026600,-0.00040752,-0.00021920,0.00023463,0.000
 28273,0.00146567,-0.00121436,-0.00127710,-0.00175796,0.00095996,0.0009
 1746,-0.00004692,-0.00000846,0.00006354,0.00003020,-0.00003588,0.00000
 862,-0.00094632,0.00116099,0.00022656,-0.00214531,-0.00304701,0.002865
 09,-0.00061283,-0.00085740,0.00210068,-0.00014669,0.00035916,0.0000626
 1,0.00201647,-0.00033471,-0.00061847,0.00000974,-0.00005366,0.00015426
 ,-0.00001898,0.00001132,-0.00004597,-0.00000963,0.00003975,-0.00007024
 ,-0.00014923,-0.00001016,0.00001520,0.00006881,-0.00001405,-0.00002561
 ,0.00004852,0.00001151,0.00000333,-0.00010276,0.00053825,-0.00098137,0
 .00012428,-0.00020551,0.00055694,-0.00009820,-0.00020046,0.00115974,-0
 .00031438,0.00027857,-0.00017890,0.00004778,-0.00003916,0.00014162,0.0
 0042906,-0.00038259,0.00012523,-0.00001638,0.00000029,0.00015190,-0.00
 000023,-0.00001643,-0.00007443,0.00000061,0.00001192,-0.00008011,-0.00
 004719,0.00068289,0.00039056,0.00016362,-0.00029734,-0.00020510,0.0000
 7449,-0.00045378,0.00000982,0.00003173,-0.00017296,0.00004904,0.000005
 78,0.00005895,-0.00001045,-0.00004047,0.00012154,-0.00002213,-0.000097
 17,-0.00006900,0.00009616,0.00003081,0.00001872,-0.00001606,0.00004928
 ,0.00002121,-0.00009397,0.00041119,-0.00033375,-0.00016351,-0.00041846
 ,0.00043752,0.00003403,-0.00013816,0.00008301,-0.00004392,-0.00007274,
 -0.00009163,-0.00005383,0.00002406,0.00004969,0.00001416,0.00005629,0.
 00006115,0.00000519,-0.00023413,-0.00008798,-0.00007611,0.00016122,0.0
 0001950,0.00000818,0.00005154,0.00005444,-0.00000791,-0.00008212,-0.00
 008875,0.00002091,0.00002741,0.00003451,-0.00000945,0.00005792,0.00006
 393,-0.00002100,0.00079722,-0.00164951,-0.00311507,0.00074725,0.000427
 30,0.00008840,-0.00085095,0.00019020,0.00060239,-0.00003774,0.00014630
 ,0.00015825,0.00005239,-0.00013999,-0.00012528,-0.00001404,-0.00004710
 ,-0.00007529,0.00008745,-0.00030031,-0.00010372,0.00000660,0.00009239,
 0.00012938,-0.00004657,0.00004479,0.00002375,0.00038123,0.00031051,0.0
 0002364,-0.00022007,-0.00018650,-0.00012391,-0.00027491,-0.00020168,0.
 00019710,-0.00011922,0.00000943,-0.00007918,0.00007309,-0.00000061,0.0
 0001862,0.00006876,-0.00001155,0.00003433,-0.00022619,-0.00013694,-0.0
 0041222,0.00012416,0.00010882,0.00009636,0.00001744,0.00012189,0.00019
 399,0.00015222,-0.00007539,0.00006719,-0.00003429,0.00003591,-0.000012
 45,-0.00009622,-0.00000014,-0.00003240,-0.00000167,-0.00002867,-0.0002
 9085,-0.00000077,0.00000286,0.00007323,0.00001584,0.00001789,0.0001434
 3,0.00014638,-0.00000788,0.00027300,-0.00000422,0.00006831,-0.00016169
 ,-0.00011494,0.00003053,-0.00009958,0.14142024,0.06117742,-0.07088654,
 0.02259340,0.01386438,-0.00700236,-0.16625878,-0.07337986,0.08091219\\
 0.02657332,0.00314160,-0.01973425,-0.03711852,0.04997103,0.01398573,0.
 04353805,-0.09242942,0.00550315,0.01394488,0.02736140,0.00180508,-0.02
 551042,0.01890847,-0.00246814,0.00789463,0.00681329,-0.00933954,-0.009
 87368,0.00576950,-0.00077798,-0.01871164,-0.00098246,-0.01676239,-0.00
 911335,0.00157975,0.00512270,-0.00995633,-0.00228653,0.01416463,-0.009
 75163,-0.00104913,0.01163732,0.00603447,0.00466231,0.00087443,0.009009
 69,-0.00703200,-0.00081918,-0.00566028,0.00595826,-0.01351647,0.011567
 49,0.04225586,0.00699964,-0.00755700,0.00771977,0.01369730,-0.00237692
 ,-0.01450613,-0.01197533,0.02190112,0.00386444,-0.00569966,0.00062572,
 0.01785838,0.01034679,-0.00912082,-0.00692063,0.00131476,0.00952693,-0
 .00470991,-0.00874912,0.02287378,-0.02335457,-0.00820234,0.00190255,-0
 .00143581,0.01817251,-0.00258291,0.00809805,-0.00068277,0.01350863,-0.
 00225474,-0.00999855,-0.01148382,-0.01904427,0.00492700,-0.01685045,0.
 00959030,-0.00263340,-0.01073160,-0.00616652,-0.00750213,0.01028098,0.
 00064104,-0.00445708,0.00462303,-0.00907241,0.01381493,-0.00482528,-0.
 00909192,-0.02939822,0.00515163,0.01503780,0.00026993,0.00569555,-0.00
 413261,0.01235325,-0.00051433,0.02205582,0.00749559,0.00946614,0.00307
 434,-0.00370156,-0.00516601,-0.01521456,-0.00458554,-0.01468355,0.0062
 4421,0.01190251,0.01147486,-0.00104069,0.00317621,-0.00123920,-0.00340
 680,-0.01009465,0.00225673,0.00195003,0.01501674,-0.00588055,0.0103801
 6,-0.00130032,0.00341769,-0.00420662,-0.00327536,0.00110921,0.00199322
 ,0.01600971,-0.00254390,-0.01220663,-0.01462872,0.00791169,0.00794460,
 -0.00708937,0.00588586,0.00371023,0.01248369,0.00407780,0.01659430,-0.
 00994607,-0.00554373,-0.01676232,-0.01362842,-0.00979037,0.00182197,-0
 .00859486,0.00716091,-0.01138659,0.00044610,0.00282661,0.01239416,0.00
 570763,0.00526740,-0.00596107,-0.01249549,0.00364473,0.00080452,0.0103
 3375,-0.01089890,0.00327783,-0.00607106,-0.00072474,-0.00904905,-0.008
 58931,0.00666015,0.00876083,0.01334604,-0.01971716,0.00736599,0.008790
 23,-0.02027389,0.01002912,-0.01182869,0.01554581,-0.00124268,-0.002080
 41,-0.00159289,-0.00161591,0.02401510,0.01208960,-0.00474220,0.0154815
 7,-0.00143333,-0.01213555,-0.00976777,-0.00234670,0.01105974,0.0047137
 1,0.01309437,-0.02185232,0.00398848,0.00988797,-0.00246642,-0.01098138
 ,-0.01292415,0.00903177,0.00519424,-0.00138229,0.00783846,0.01091406,0
 .00163406,0.01456021,-0.00855188,-0.01832308,-0.02993819,-0.00025738,-
 0.00496890,0.00292701,0.00812577,0.01582838,0.00611138,0.00077541,-0.0
 1261740,0.00773350,0.00115605,0.00332900,-0.03257590,-0.00390493,0.002
 60427,0.00683469,-0.01506020,-0.01312957,0.00542687,0.01245237,-0.0070
 7509,-0.01615926,0.00236792,-0.01192707,0.01248297,0.00984492,0.012629
 16,0.00170241,-0.00678601\\\@


 When cryptography is outlawed, bayl bhgynjf jvyy unir cevinpl.
 Job cpu time:       1 days 22 hours 50 minutes 23.0 seconds.
 Elapsed time:       0 days  1 hours 28 minutes 31.0 seconds.
 File lengths (MBytes):  RWF=   4711 Int=      0 D2E=      0 Chk=     46 Scr=      1
 Normal termination of Gaussian 16 at Sat Sep 17 01:24:14 2022.
