 Entering Gaussian System, Link 0=/shared/gaussian/g16.b01/AVX2/g16/g16
 Input=snap004.S0.com
 Output=snap004.S0.log
 Initial command:
 /shared/gaussian/g16.b01/AVX2/g16/l1.exe "/scratch/giacomo/Gauscr/Gau-14031.inp" -scrdir="/scratch/giacomo/Gauscr/"
 Entering Link 1 = /shared/gaussian/g16.b01/AVX2/g16/l1.exe PID=     14032.
  
 Copyright (c) 1988-2017, Gaussian, Inc.  All Rights Reserved.
  
 This is part of the Gaussian(R) 16 program.  It is based on
 the Gaussian(R) 09 system (copyright 2009, Gaussian, Inc.),
 the Gaussian(R) 03 system (copyright 2003, Gaussian, Inc.),
 the Gaussian(R) 98 system (copyright 1998, Gaussian, Inc.),
 the Gaussian(R) 94 system (copyright 1995, Gaussian, Inc.),
 the Gaussian 92(TM) system (copyright 1992, Gaussian, Inc.),
 the Gaussian 90(TM) system (copyright 1990, Gaussian, Inc.),
 the Gaussian 88(TM) system (copyright 1988, Gaussian, Inc.),
 the Gaussian 86(TM) system (copyright 1986, Carnegie Mellon
 University), and the Gaussian 82(TM) system (copyright 1983,
 Carnegie Mellon University). Gaussian is a federally registered
 trademark of Gaussian, Inc.
  
 This software contains proprietary and confidential information,
 including trade secrets, belonging to Gaussian, Inc.
  
 This software is provided under written license and may be
 used, copied, transmitted, or stored only in accord with that
 written license.
  
 The following legend is applicable only to US Government
 contracts under FAR:
  
                    RESTRICTED RIGHTS LEGEND
  
 Use, reproduction and disclosure by the US Government is
 subject to restrictions as set forth in subparagraphs (a)
 and (c) of the Commercial Computer Software - Restricted
 Rights clause in FAR 52.227-19.
  
 Gaussian, Inc.
 340 Quinnipiac St., Bldg. 40, Wallingford CT 06492
  
  
 ---------------------------------------------------------------
 Warning -- This program may not be used in any manner that
 competes with the business of Gaussian, Inc. or will provide
 assistance to any competitor of Gaussian, Inc.  The licensee
 of this program is prohibited from giving any competitor of
 Gaussian, Inc. access to this program.  By using this program,
 the user acknowledges that Gaussian, Inc. is engaged in the
 business of creating and licensing software in the field of
 computational chemistry and represents and warrants to the
 licensee that it is not a competitor of Gaussian, Inc. and that
 it will not use this program in any manner prohibited above.
 ---------------------------------------------------------------
  

 Cite this work as:
 Gaussian 16, Revision B.01,
 M. J. Frisch, G. W. Trucks, H. B. Schlegel, G. E. Scuseria, 
 M. A. Robb, J. R. Cheeseman, G. Scalmani, V. Barone, 
 G. A. Petersson, H. Nakatsuji, X. Li, M. Caricato, A. V. Marenich, 
 J. Bloino, B. G. Janesko, R. Gomperts, B. Mennucci, H. P. Hratchian, 
 J. V. Ortiz, A. F. Izmaylov, J. L. Sonnenberg, D. Williams-Young, 
 F. Ding, F. Lipparini, F. Egidi, J. Goings, B. Peng, A. Petrone, 
 T. Henderson, D. Ranasinghe, V. G. Zakrzewski, J. Gao, N. Rega, 
 G. Zheng, W. Liang, M. Hada, M. Ehara, K. Toyota, R. Fukuda, 
 J. Hasegawa, M. Ishida, T. Nakajima, Y. Honda, O. Kitao, H. Nakai, 
 T. Vreven, K. Throssell, J. A. Montgomery, Jr., J. E. Peralta, 
 F. Ogliaro, M. J. Bearpark, J. J. Heyd, E. N. Brothers, K. N. Kudin, 
 V. N. Staroverov, T. A. Keith, R. Kobayashi, J. Normand, 
 K. Raghavachari, A. P. Rendell, J. C. Burant, S. S. Iyengar, 
 J. Tomasi, M. Cossi, J. M. Millam, M. Klene, C. Adamo, R. Cammi, 
 J. W. Ochterski, R. L. Martin, K. Morokuma, O. Farkas, 
 J. B. Foresman, and D. J. Fox, Gaussian, Inc., Wallingford CT, 2016.
 
 ******************************************
 Gaussian 16:  ES64L-G16RevB.01 20-Dec-2017
                16-Sep-2022 
 ******************************************
 %Nproc=32
 Will use up to   32 processors via shared memory.
 %Mem=120Gb
 %chk=temp.chk
 -------------------------------------------
 #p cam-b3lyp/6-31+G(d,p) nosymm charge Freq
 -------------------------------------------
 1/10=4,18=10,28=-2,30=1,38=1,125=101/1,3;
 2/12=2,15=1,17=6,18=5,40=1/2;
 3/5=1,6=6,7=111,11=2,25=1,30=1,71=2,74=-40,140=1/1,2,3;
 4//1;
 5/5=2,38=5,98=1/2;
 8/6=4,10=90,11=11/1;
 11/6=1,8=1,9=11,15=111,16=1,31=1/1,2,10;
 10/6=1,31=1/2;
 6/7=2,8=2,9=2,10=2,28=1/1;
 7/8=1,10=1,16=-2,25=1,30=1/1,2,3,16;
 1/10=4,18=10,28=-2,30=1/3;
 99//99;
 Leave Link    1 at Fri Sep 16 22:02:36 2022, MaxMem= 16106127360 cpu:               2.0 elap:               0.1
 (Enter /shared/gaussian/g16.b01/AVX2/g16/l101.exe)
 ------------------------------------------
 Calculation for S0 with freq for abs spect
 ------------------------------------------
 Symbolic Z-matrix:
 Charge =  0 Multiplicity = 1
 C                     15.88018   15.97522   17.81467 
 C                     15.97257   16.10247   15.36797 
 C                     17.11872   16.86867   15.3113 
 C                     17.76584   17.236    16.61 
 N                     17.06295   16.68613   17.72944 
 H                     15.55659   15.67627   14.48086 
 H                     17.53676   17.19279   14.36875 
 O                     18.74986   17.9279   16.77652 
 O                     15.3903   15.6817   18.86258 
 N                     15.37635   15.74355   16.57592 
 H                     14.48147   15.30343   16.53864 
 H                     17.49729   16.77218   18.63828 
 O                     17.33103   14.3681   12.74485 
 H                     16.67916   13.70527   12.5169 
 H                     17.27126   15.01515   12.04201 
 O                     15.39751   12.8119   19.18863 
 H                     15.59412   13.69632   19.49746 
 H                     16.08354   12.62325   18.54832 
 O                     13.51771   17.92406   13.79829 
 H                     13.24527   18.42894   13.03206 
 H                     13.25595   17.0252   13.59889 
 O                     18.98197   12.23458   17.70313 
 H                     19.72223   12.31342   17.10144 
 H                     18.21275   12.20256   17.13435 
 O                     19.48355   16.86793   20.01904 
 H                     20.08475   16.85551   20.76377 
 H                     19.57681   17.74617   19.64994 
 O                     18.85671   20.6023   17.69354 
 H                     18.42518   19.81581   17.35969 
 H                     18.8928   21.19373   16.94175 
 O                     14.66032   13.00418   14.54709 
 H                     14.12883   13.67498   14.1184 
 H                     14.09669   12.65699   15.23847 
 O                     12.99074   14.38194   17.09152 
 H                     12.72881   14.57476   17.99176 
 H                     12.82138   13.44559   16.98763 
 O                     15.57337   17.6159   21.16902 
 H                     16.14075   17.28835   21.8669 
 H                     15.7363   17.02794   20.43145 
 O                     12.73427   14.3756   19.75517 
 H                     12.49727   15.12107   20.30684 
 H                     13.66898   14.2459   19.91559 
 O                     16.06233   19.23373   13.60272 
 H                     15.26873   18.73943   13.80793 
 H                     16.26599   18.99596   12.69816 
 O                     13.28038   20.46803   19.07913 
 H                     13.66953   21.34162   19.1203 
 H                     13.98802   19.90458   18.76611 
 O                     19.44818   14.07749   20.32357 
 H                     19.36087   13.99941   19.37357 
 H                     19.23358   14.99151   20.50998 
 O                     12.82187   15.07621   13.66525 
 H                     12.05644   15.17258   14.23187 
 H                     12.45752   14.90658   12.79651 
 O                     18.3651   20.6475   13.35334 
 H                     17.66358   20.13491   13.75502 
 H                     18.01879   20.89861   12.49703 
 O                     16.75477   12.25144   16.45171 
 H                     16.51705   11.32423   16.44781 
 H                     16.36194   12.60326   15.65287 
 O                     12.93007   18.30303   16.43092 
 H                     13.14611   18.15205   15.51072 
 H                     12.16693   18.88032   16.40667 
 O                     15.29143   19.51157   16.99119 
 H                     14.47721   19.0289   16.84869 
 H                     15.62737   19.68066   16.11097 
 O                     21.21098   17.88653   15.16436 
 H                     21.6504   17.57208   15.95447 
 H                     20.27827   17.77313   15.34723 
 
 ITRead=  0  0  0  0  0  0  0  0  0  0  0  0  0  0  0  0  0  0  0  0
 ITRead=  0  0  0  0  0  0  0  0  0  0  0  0  0  0  0  0  0  0  0  0
 ITRead=  0  0  0  0  0  0  0  0  0  0  0  0  0  0  0  0  0  0  0  0
 ITRead=  0  0  0  0  0  0  0  0  0
 MicOpt= -1 -1 -1 -1 -1 -1 -1 -1 -1 -1 -1 -1 -1 -1 -1 -1 -1 -1 -1 -1
 MicOpt= -1 -1 -1 -1 -1 -1 -1 -1 -1 -1 -1 -1 -1 -1 -1 -1 -1 -1 -1 -1
 MicOpt= -1 -1 -1 -1 -1 -1 -1 -1 -1 -1 -1 -1 -1 -1 -1 -1 -1 -1 -1 -1
 MicOpt= -1 -1 -1 -1 -1 -1 -1 -1 -1
 NAtoms=     69 NQM=       69 NQMF=       0 NMMI=      0 NMMIF=      0
                NMic=       0 NMicF=      0.
                    Isotopes and Nuclear Properties:
 (Nuclear quadrupole moments (NQMom) in fm**2, nuclear magnetic moments (NMagM)
  in nuclear magnetons)

  Atom         1           2           3           4           5           6           7           8           9          10
 IAtWgt=          12          12          12          12          14           1           1          16          16          14
 AtmWgt=  12.0000000  12.0000000  12.0000000  12.0000000  14.0030740   1.0078250   1.0078250  15.9949146  15.9949146  14.0030740
 NucSpn=           0           0           0           0           2           1           1           0           0           2
 AtZEff=  -0.0000000  -0.0000000  -0.0000000  -0.0000000  -0.0000000  -0.0000000  -0.0000000  -0.0000000  -0.0000000  -0.0000000
 NQMom=    0.0000000   0.0000000   0.0000000   0.0000000   2.0440000   0.0000000   0.0000000   0.0000000   0.0000000   2.0440000
 NMagM=    0.0000000   0.0000000   0.0000000   0.0000000   0.4037610   2.7928460   2.7928460   0.0000000   0.0000000   0.4037610
 AtZNuc=   6.0000000   6.0000000   6.0000000   6.0000000   7.0000000   1.0000000   1.0000000   8.0000000   8.0000000   7.0000000

  Atom        11          12          13          14          15          16          17          18          19          20
 IAtWgt=           1           1          16           1           1          16           1           1          16           1
 AtmWgt=   1.0078250   1.0078250  15.9949146   1.0078250   1.0078250  15.9949146   1.0078250   1.0078250  15.9949146   1.0078250
 NucSpn=           1           1           0           1           1           0           1           1           0           1
 AtZEff=  -0.0000000  -0.0000000  -0.0000000  -0.0000000  -0.0000000  -0.0000000  -0.0000000  -0.0000000  -0.0000000  -0.0000000
 NQMom=    0.0000000   0.0000000   0.0000000   0.0000000   0.0000000   0.0000000   0.0000000   0.0000000   0.0000000   0.0000000
 NMagM=    2.7928460   2.7928460   0.0000000   2.7928460   2.7928460   0.0000000   2.7928460   2.7928460   0.0000000   2.7928460
 AtZNuc=   1.0000000   1.0000000   8.0000000   1.0000000   1.0000000   8.0000000   1.0000000   1.0000000   8.0000000   1.0000000

  Atom        21          22          23          24          25          26          27          28          29          30
 IAtWgt=           1          16           1           1          16           1           1          16           1           1
 AtmWgt=   1.0078250  15.9949146   1.0078250   1.0078250  15.9949146   1.0078250   1.0078250  15.9949146   1.0078250   1.0078250
 NucSpn=           1           0           1           1           0           1           1           0           1           1
 AtZEff=  -0.0000000  -0.0000000  -0.0000000  -0.0000000  -0.0000000  -0.0000000  -0.0000000  -0.0000000  -0.0000000  -0.0000000
 NQMom=    0.0000000   0.0000000   0.0000000   0.0000000   0.0000000   0.0000000   0.0000000   0.0000000   0.0000000   0.0000000
 NMagM=    2.7928460   0.0000000   2.7928460   2.7928460   0.0000000   2.7928460   2.7928460   0.0000000   2.7928460   2.7928460
 AtZNuc=   1.0000000   8.0000000   1.0000000   1.0000000   8.0000000   1.0000000   1.0000000   8.0000000   1.0000000   1.0000000

  Atom        31          32          33          34          35          36          37          38          39          40
 IAtWgt=          16           1           1          16           1           1          16           1           1          16
 AtmWgt=  15.9949146   1.0078250   1.0078250  15.9949146   1.0078250   1.0078250  15.9949146   1.0078250   1.0078250  15.9949146
 NucSpn=           0           1           1           0           1           1           0           1           1           0
 AtZEff=  -0.0000000  -0.0000000  -0.0000000  -0.0000000  -0.0000000  -0.0000000  -0.0000000  -0.0000000  -0.0000000  -0.0000000
 NQMom=    0.0000000   0.0000000   0.0000000   0.0000000   0.0000000   0.0000000   0.0000000   0.0000000   0.0000000   0.0000000
 NMagM=    0.0000000   2.7928460   2.7928460   0.0000000   2.7928460   2.7928460   0.0000000   2.7928460   2.7928460   0.0000000
 AtZNuc=   8.0000000   1.0000000   1.0000000   8.0000000   1.0000000   1.0000000   8.0000000   1.0000000   1.0000000   8.0000000

  Atom        41          42          43          44          45          46          47          48          49          50
 IAtWgt=           1           1          16           1           1          16           1           1          16           1
 AtmWgt=   1.0078250   1.0078250  15.9949146   1.0078250   1.0078250  15.9949146   1.0078250   1.0078250  15.9949146   1.0078250
 NucSpn=           1           1           0           1           1           0           1           1           0           1
 AtZEff=  -0.0000000  -0.0000000  -0.0000000  -0.0000000  -0.0000000  -0.0000000  -0.0000000  -0.0000000  -0.0000000  -0.0000000
 NQMom=    0.0000000   0.0000000   0.0000000   0.0000000   0.0000000   0.0000000   0.0000000   0.0000000   0.0000000   0.0000000
 NMagM=    2.7928460   2.7928460   0.0000000   2.7928460   2.7928460   0.0000000   2.7928460   2.7928460   0.0000000   2.7928460
 AtZNuc=   1.0000000   1.0000000   8.0000000   1.0000000   1.0000000   8.0000000   1.0000000   1.0000000   8.0000000   1.0000000

  Atom        51          52          53          54          55          56          57          58          59          60
 IAtWgt=           1          16           1           1          16           1           1          16           1           1
 AtmWgt=   1.0078250  15.9949146   1.0078250   1.0078250  15.9949146   1.0078250   1.0078250  15.9949146   1.0078250   1.0078250
 NucSpn=           1           0           1           1           0           1           1           0           1           1
 AtZEff=  -0.0000000  -0.0000000  -0.0000000  -0.0000000  -0.0000000  -0.0000000  -0.0000000  -0.0000000  -0.0000000  -0.0000000
 NQMom=    0.0000000   0.0000000   0.0000000   0.0000000   0.0000000   0.0000000   0.0000000   0.0000000   0.0000000   0.0000000
 NMagM=    2.7928460   0.0000000   2.7928460   2.7928460   0.0000000   2.7928460   2.7928460   0.0000000   2.7928460   2.7928460
 AtZNuc=   1.0000000   8.0000000   1.0000000   1.0000000   8.0000000   1.0000000   1.0000000   8.0000000   1.0000000   1.0000000

  Atom        61          62          63          64          65          66          67          68          69
 IAtWgt=          16           1           1          16           1           1          16           1           1
 AtmWgt=  15.9949146   1.0078250   1.0078250  15.9949146   1.0078250   1.0078250  15.9949146   1.0078250   1.0078250
 NucSpn=           0           1           1           0           1           1           0           1           1
 AtZEff=  -0.0000000  -0.0000000  -0.0000000  -0.0000000  -0.0000000  -0.0000000  -0.0000000  -0.0000000  -0.0000000
 NQMom=    0.0000000   0.0000000   0.0000000   0.0000000   0.0000000   0.0000000   0.0000000   0.0000000   0.0000000
 NMagM=    0.0000000   2.7928460   2.7928460   0.0000000   2.7928460   2.7928460   0.0000000   2.7928460   2.7928460
 AtZNuc=   8.0000000   1.0000000   1.0000000   8.0000000   1.0000000   1.0000000   8.0000000   1.0000000   1.0000000
 Background charge distribution read from input stream:
 Point Charges:
 XYZ=   18.5448   23.5225    3.2363 Q=   -0.8340 A=    0.0000 R=    0.0000 C=    0.0000
 XYZ=   18.9204   24.0733    3.9232 Q=    0.4170 A=    0.0000 R=    0.0000 C=    0.0000
 XYZ=   18.1079   24.1378    2.6474 Q=    0.4170 A=    0.0000 R=    0.0000 C=    0.0000
 XYZ=    8.6140   13.6271   11.8874 Q=   -0.8340 A=    0.0000 R=    0.0000 C=    0.0000
 XYZ=    8.9831   12.7447   11.8519 Q=    0.4170 A=    0.0000 R=    0.0000 C=    0.0000
 XYZ=    9.3559   14.2050   11.7094 Q=    0.4170 A=    0.0000 R=    0.0000 C=    0.0000
 XYZ=   22.9566   14.0992   21.9050 Q=   -0.8340 A=    0.0000 R=    0.0000 C=    0.0000
 XYZ=   22.6746   14.5701   22.6892 Q=    0.4170 A=    0.0000 R=    0.0000 C=    0.0000
 XYZ=   22.7930   14.7100   21.1865 Q=    0.4170 A=    0.0000 R=    0.0000 C=    0.0000
 XYZ=   20.7456   18.5235   28.2841 Q=   -0.8340 A=    0.0000 R=    0.0000 C=    0.0000
 XYZ=   20.2758   18.1938   29.0502 Q=    0.4170 A=    0.0000 R=    0.0000 C=    0.0000
 XYZ=   21.2985   19.2262   28.6258 Q=    0.4170 A=    0.0000 R=    0.0000 C=    0.0000
 XYZ=    8.3116   19.8338    8.2150 Q=   -0.8340 A=    0.0000 R=    0.0000 C=    0.0000
 XYZ=    8.4934   19.9212    7.2793 Q=    0.4170 A=    0.0000 R=    0.0000 C=    0.0000
 XYZ=    7.4018   19.5390    8.2562 Q=    0.4170 A=    0.0000 R=    0.0000 C=    0.0000
 XYZ=   29.6796   16.1457   13.8192 Q=   -0.8340 A=    0.0000 R=    0.0000 C=    0.0000
 XYZ=   29.0619   16.5815   13.2319 Q=    0.4170 A=    0.0000 R=    0.0000 C=    0.0000
 XYZ=   29.7212   15.2449   13.4982 Q=    0.4170 A=    0.0000 R=    0.0000 C=    0.0000
 XYZ=   18.7661   13.1772   28.4481 Q=   -0.8340 A=    0.0000 R=    0.0000 C=    0.0000
 XYZ=   17.9848   12.8298   28.8783 Q=    0.4170 A=    0.0000 R=    0.0000 C=    0.0000
 XYZ=   18.4458   13.9129   27.9262 Q=    0.4170 A=    0.0000 R=    0.0000 C=    0.0000
 XYZ=   15.8202    5.1503   26.6777 Q=   -0.8340 A=    0.0000 R=    0.0000 C=    0.0000
 XYZ=   16.0697    5.2778   25.7624 Q=    0.4170 A=    0.0000 R=    0.0000 C=    0.0000
 XYZ=   15.7993    6.0335   27.0460 Q=    0.4170 A=    0.0000 R=    0.0000 C=    0.0000
 XYZ=   27.1023   23.4334   13.3501 Q=   -0.8340 A=    0.0000 R=    0.0000 C=    0.0000
 XYZ=   26.2862   23.0576   13.6804 Q=    0.4170 A=    0.0000 R=    0.0000 C=    0.0000
 XYZ=   26.9200   23.6336   12.4320 Q=    0.4170 A=    0.0000 R=    0.0000 C=    0.0000
 XYZ=   27.0422   25.9062   20.4979 Q=   -0.8340 A=    0.0000 R=    0.0000 C=    0.0000
 XYZ=   26.4047   26.5996   20.3277 Q=    0.4170 A=    0.0000 R=    0.0000 C=    0.0000
 XYZ=   27.6290   26.2762   21.1574 Q=    0.4170 A=    0.0000 R=    0.0000 C=    0.0000
 XYZ=    9.2813   25.2852    7.3778 Q=   -0.8340 A=    0.0000 R=    0.0000 C=    0.0000
 XYZ=    9.0128   24.5306    6.8536 Q=    0.4170 A=    0.0000 R=    0.0000 C=    0.0000
 XYZ=   10.0134   25.6660    6.8927 Q=    0.4170 A=    0.0000 R=    0.0000 C=    0.0000
 XYZ=   19.0848    2.5783   13.5579 Q=   -0.8340 A=    0.0000 R=    0.0000 C=    0.0000
 XYZ=   19.6829    2.1327   14.1579 Q=    0.4170 A=    0.0000 R=    0.0000 C=    0.0000
 XYZ=   18.9503    1.9536   12.8452 Q=    0.4170 A=    0.0000 R=    0.0000 C=    0.0000
 XYZ=   25.7883   11.8031   20.3464 Q=   -0.8340 A=    0.0000 R=    0.0000 C=    0.0000
 XYZ=   26.1469   12.5061   20.8881 Q=    0.4170 A=    0.0000 R=    0.0000 C=    0.0000
 XYZ=   25.7496   11.0459   20.9307 Q=    0.4170 A=    0.0000 R=    0.0000 C=    0.0000
 XYZ=   18.0160   13.4081    2.9484 Q=   -0.8340 A=    0.0000 R=    0.0000 C=    0.0000
 XYZ=   17.1222   13.7433    2.8776 Q=    0.4170 A=    0.0000 R=    0.0000 C=    0.0000
 XYZ=   18.1937   13.3955    3.8889 Q=    0.4170 A=    0.0000 R=    0.0000 C=    0.0000
 XYZ=    8.1205   16.4467   14.4306 Q=   -0.8340 A=    0.0000 R=    0.0000 C=    0.0000
 XYZ=    8.6307   17.2061   14.7119 Q=    0.4170 A=    0.0000 R=    0.0000 C=    0.0000
 XYZ=    7.9123   15.9835   15.2419 Q=    0.4170 A=    0.0000 R=    0.0000 C=    0.0000
 XYZ=   19.7795    9.2200   12.6588 Q=   -0.8340 A=    0.0000 R=    0.0000 C=    0.0000
 XYZ=   19.1679    9.7831   13.1332 Q=    0.4170 A=    0.0000 R=    0.0000 C=    0.0000
 XYZ=   19.2577    8.8416   11.9511 Q=    0.4170 A=    0.0000 R=    0.0000 C=    0.0000
 XYZ=    5.7607   27.0239   18.7230 Q=   -0.8340 A=    0.0000 R=    0.0000 C=    0.0000
 XYZ=    5.9195   27.3431   17.8347 Q=    0.4170 A=    0.0000 R=    0.0000 C=    0.0000
 XYZ=    5.9980   26.0972   18.6911 Q=    0.4170 A=    0.0000 R=    0.0000 C=    0.0000
 XYZ=   23.3678   11.6820   22.8899 Q=   -0.8340 A=    0.0000 R=    0.0000 C=    0.0000
 XYZ=   23.0008   12.4904   22.5321 Q=    0.4170 A=    0.0000 R=    0.0000 C=    0.0000
 XYZ=   23.3570   11.0680   22.1556 Q=    0.4170 A=    0.0000 R=    0.0000 C=    0.0000
 XYZ=   23.6181   26.4065   12.0695 Q=   -0.8340 A=    0.0000 R=    0.0000 C=    0.0000
 XYZ=   23.6862   27.0810   12.7452 Q=    0.4170 A=    0.0000 R=    0.0000 C=    0.0000
 XYZ=   24.0753   26.7764   11.3143 Q=    0.4170 A=    0.0000 R=    0.0000 C=    0.0000
 XYZ=   19.2178   18.3165   23.1271 Q=   -0.8340 A=    0.0000 R=    0.0000 C=    0.0000
 XYZ=   18.7554   19.1373   23.2969 Q=    0.4170 A=    0.0000 R=    0.0000 C=    0.0000
 XYZ=   19.7088   18.1469   23.9311 Q=    0.4170 A=    0.0000 R=    0.0000 C=    0.0000
 XYZ=    5.7358   25.2284   21.5018 Q=   -0.8340 A=    0.0000 R=    0.0000 C=    0.0000
 XYZ=    5.1604   24.8397   20.8430 Q=    0.4170 A=    0.0000 R=    0.0000 C=    0.0000
 XYZ=    6.5901   24.8277   21.3407 Q=    0.4170 A=    0.0000 R=    0.0000 C=    0.0000
 XYZ=   24.0669   15.4292   26.3106 Q=   -0.8340 A=    0.0000 R=    0.0000 C=    0.0000
 XYZ=   23.3565   15.4755   26.9505 Q=    0.4170 A=    0.0000 R=    0.0000 C=    0.0000
 XYZ=   24.5045   14.5987   26.4974 Q=    0.4170 A=    0.0000 R=    0.0000 C=    0.0000
 XYZ=   19.7976   11.4134   26.5401 Q=   -0.8340 A=    0.0000 R=    0.0000 C=    0.0000
 XYZ=   19.2013   12.0044   26.9998 Q=    0.4170 A=    0.0000 R=    0.0000 C=    0.0000
 XYZ=   20.0296   11.8824   25.7385 Q=    0.4170 A=    0.0000 R=    0.0000 C=    0.0000
 XYZ=   10.3401    9.1112   13.9880 Q=   -0.8340 A=    0.0000 R=    0.0000 C=    0.0000
 XYZ=    9.5384    8.7085   13.6543 Q=    0.4170 A=    0.0000 R=    0.0000 C=    0.0000
 XYZ=   10.2375    9.0973   14.9396 Q=    0.4170 A=    0.0000 R=    0.0000 C=    0.0000
 XYZ=   30.1734   19.2691   13.1389 Q=   -0.8340 A=    0.0000 R=    0.0000 C=    0.0000
 XYZ=   30.2078   18.5761   12.4795 Q=    0.4170 A=    0.0000 R=    0.0000 C=    0.0000
 XYZ=   29.8201   18.8409   13.9187 Q=    0.4170 A=    0.0000 R=    0.0000 C=    0.0000
 XYZ=   27.5895    7.6906   13.7284 Q=   -0.8340 A=    0.0000 R=    0.0000 C=    0.0000
 XYZ=   27.5802    8.2440   12.9474 Q=    0.4170 A=    0.0000 R=    0.0000 C=    0.0000
 XYZ=   26.8685    7.0753   13.5952 Q=    0.4170 A=    0.0000 R=    0.0000 C=    0.0000
 XYZ=   19.3974   27.2532   19.4315 Q=   -0.8340 A=    0.0000 R=    0.0000 C=    0.0000
 XYZ=   20.3317   27.4611   19.4418 Q=    0.4170 A=    0.0000 R=    0.0000 C=    0.0000
 XYZ=   19.3458   26.4013   18.9981 Q=    0.4170 A=    0.0000 R=    0.0000 C=    0.0000
 XYZ=   17.5540   16.5390    7.2364 Q=   -0.8340 A=    0.0000 R=    0.0000 C=    0.0000
 XYZ=   17.5569   16.2960    8.1623 Q=    0.4170 A=    0.0000 R=    0.0000 C=    0.0000
 XYZ=   17.0285   17.3383    7.1997 Q=    0.4170 A=    0.0000 R=    0.0000 C=    0.0000
 XYZ=   19.2518    9.0259   28.0623 Q=   -0.8340 A=    0.0000 R=    0.0000 C=    0.0000
 XYZ=   19.6451    8.1688   28.2269 Q=    0.4170 A=    0.0000 R=    0.0000 C=    0.0000
 XYZ=   19.8549    9.4539   27.4546 Q=    0.4170 A=    0.0000 R=    0.0000 C=    0.0000
 XYZ=   21.3533   28.8695   17.1389 Q=   -0.8340 A=    0.0000 R=    0.0000 C=    0.0000
 XYZ=   20.4715   28.4981   17.1663 Q=    0.4170 A=    0.0000 R=    0.0000 C=    0.0000
 XYZ=   21.7336   28.6478   17.9889 Q=    0.4170 A=    0.0000 R=    0.0000 C=    0.0000
 XYZ=   18.3067    7.8074   19.8068 Q=   -0.8340 A=    0.0000 R=    0.0000 C=    0.0000
 XYZ=   18.8079    8.5521   19.4745 Q=    0.4170 A=    0.0000 R=    0.0000 C=    0.0000
 XYZ=   18.0501    8.0666   20.6918 Q=    0.4170 A=    0.0000 R=    0.0000 C=    0.0000
 XYZ=   18.6066   20.8052   29.9089 Q=   -0.8340 A=    0.0000 R=    0.0000 C=    0.0000
 XYZ=   18.0152   20.1529   29.5335 Q=    0.4170 A=    0.0000 R=    0.0000 C=    0.0000
 XYZ=   18.9964   21.2404   29.1506 Q=    0.4170 A=    0.0000 R=    0.0000 C=    0.0000
 XYZ=    8.5925   12.2660   23.0731 Q=   -0.8340 A=    0.0000 R=    0.0000 C=    0.0000
 XYZ=    8.6817   11.4330   23.5360 Q=    0.4170 A=    0.0000 R=    0.0000 C=    0.0000
 XYZ=    8.4694   12.9140   23.7668 Q=    0.4170 A=    0.0000 R=    0.0000 C=    0.0000
 XYZ=   13.2636    9.6554   12.7647 Q=   -0.8340 A=    0.0000 R=    0.0000 C=    0.0000
 XYZ=   12.6383    8.9552   12.5776 Q=    0.4170 A=    0.0000 R=    0.0000 C=    0.0000
 XYZ=   13.4658    9.5543   13.6949 Q=    0.4170 A=    0.0000 R=    0.0000 C=    0.0000
 XYZ=   29.0397   18.6363   15.8317 Q=   -0.8340 A=    0.0000 R=    0.0000 C=    0.0000
 XYZ=   28.1761   19.0188   15.9870 Q=    0.4170 A=    0.0000 R=    0.0000 C=    0.0000
 XYZ=   28.8778   17.6949   15.7710 Q=    0.4170 A=    0.0000 R=    0.0000 C=    0.0000
 XYZ=   23.8356   21.2705   20.7715 Q=   -0.8340 A=    0.0000 R=    0.0000 C=    0.0000
 XYZ=   24.3982   21.9580   20.4151 Q=    0.4170 A=    0.0000 R=    0.0000 C=    0.0000
 XYZ=   23.2145   21.0803   20.0684 Q=    0.4170 A=    0.0000 R=    0.0000 C=    0.0000
 XYZ=   19.1284   21.0494   24.3273 Q=   -0.8340 A=    0.0000 R=    0.0000 C=    0.0000
 XYZ=   19.9092   20.9646   23.7803 Q=    0.4170 A=    0.0000 R=    0.0000 C=    0.0000
 XYZ=   18.7489   21.8912   24.0751 Q=    0.4170 A=    0.0000 R=    0.0000 C=    0.0000
 XYZ=    8.6533   22.9426    6.2165 Q=   -0.8340 A=    0.0000 R=    0.0000 C=    0.0000
 XYZ=    9.0318   22.0637    6.2403 Q=    0.4170 A=    0.0000 R=    0.0000 C=    0.0000
 XYZ=    7.7302   22.8007    6.0069 Q=    0.4170 A=    0.0000 R=    0.0000 C=    0.0000
 XYZ=   10.3297    7.5459   11.1850 Q=   -0.8340 A=    0.0000 R=    0.0000 C=    0.0000
 XYZ=    9.4525    7.7748   11.4924 Q=    0.4170 A=    0.0000 R=    0.0000 C=    0.0000
 XYZ=   10.3797    7.9168   10.3040 Q=    0.4170 A=    0.0000 R=    0.0000 C=    0.0000
 XYZ=   21.8425   20.7507   29.2061 Q=   -0.8340 A=    0.0000 R=    0.0000 C=    0.0000
 XYZ=   21.3771   21.5623   29.4085 Q=    0.4170 A=    0.0000 R=    0.0000 C=    0.0000
 XYZ=   22.7678   20.9958   29.2165 Q=    0.4170 A=    0.0000 R=    0.0000 C=    0.0000
 XYZ=   17.3883   23.8786   13.6808 Q=   -0.8340 A=    0.0000 R=    0.0000 C=    0.0000
 XYZ=   16.6661   23.2740   13.8516 Q=    0.4170 A=    0.0000 R=    0.0000 C=    0.0000
 XYZ=   18.1333   23.3120   13.4802 Q=    0.4170 A=    0.0000 R=    0.0000 C=    0.0000
 XYZ=   25.0346   28.9353   17.8397 Q=   -0.8340 A=    0.0000 R=    0.0000 C=    0.0000
 XYZ=   25.4968   29.5045   18.4550 Q=    0.4170 A=    0.0000 R=    0.0000 C=    0.0000
 XYZ=   25.3317   28.0525   18.0598 Q=    0.4170 A=    0.0000 R=    0.0000 C=    0.0000
 XYZ=   14.7379   17.1768   28.0629 Q=   -0.8340 A=    0.0000 R=    0.0000 C=    0.0000
 XYZ=   14.6845   16.2312   28.2011 Q=    0.4170 A=    0.0000 R=    0.0000 C=    0.0000
 XYZ=   15.1053   17.2705   27.1839 Q=    0.4170 A=    0.0000 R=    0.0000 C=    0.0000
 XYZ=   27.6735   10.7035    8.7910 Q=   -0.8340 A=    0.0000 R=    0.0000 C=    0.0000
 XYZ=   28.3078   10.9779    9.4532 Q=    0.4170 A=    0.0000 R=    0.0000 C=    0.0000
 XYZ=   28.1876   10.1989    8.1607 Q=    0.4170 A=    0.0000 R=    0.0000 C=    0.0000
 XYZ=   19.1549   26.2667    8.6194 Q=   -0.8340 A=    0.0000 R=    0.0000 C=    0.0000
 XYZ=   20.0370   26.6383    8.6145 Q=    0.4170 A=    0.0000 R=    0.0000 C=    0.0000
 XYZ=   18.6452   26.8656    9.1650 Q=    0.4170 A=    0.0000 R=    0.0000 C=    0.0000
 XYZ=   17.6695   29.1397    7.9381 Q=   -0.8340 A=    0.0000 R=    0.0000 C=    0.0000
 XYZ=   18.2364   29.5480    7.2838 Q=    0.4170 A=    0.0000 R=    0.0000 C=    0.0000
 XYZ=   18.2477   28.9641    8.6805 Q=    0.4170 A=    0.0000 R=    0.0000 C=    0.0000
 XYZ=   12.8605   27.3558   26.0930 Q=   -0.8340 A=    0.0000 R=    0.0000 C=    0.0000
 XYZ=   12.5167   27.2392   26.9787 Q=    0.4170 A=    0.0000 R=    0.0000 C=    0.0000
 XYZ=   12.4059   28.1291   25.7590 Q=    0.4170 A=    0.0000 R=    0.0000 C=    0.0000
 XYZ=   10.9641   24.9672   26.4291 Q=   -0.8340 A=    0.0000 R=    0.0000 C=    0.0000
 XYZ=   11.6772   24.3310   26.3738 Q=    0.4170 A=    0.0000 R=    0.0000 C=    0.0000
 XYZ=   11.4036   25.8142   26.5048 Q=    0.4170 A=    0.0000 R=    0.0000 C=    0.0000
 XYZ=   16.3658   27.3737    6.3995 Q=   -0.8340 A=    0.0000 R=    0.0000 C=    0.0000
 XYZ=   15.5050   27.2988    6.8113 Q=    0.4170 A=    0.0000 R=    0.0000 C=    0.0000
 XYZ=   16.8503   27.9760    6.9641 Q=    0.4170 A=    0.0000 R=    0.0000 C=    0.0000
 XYZ=   10.0755    4.4201   15.4659 Q=   -0.8340 A=    0.0000 R=    0.0000 C=    0.0000
 XYZ=    9.3967    5.0086   15.1356 Q=    0.4170 A=    0.0000 R=    0.0000 C=    0.0000
 XYZ=   10.2787    3.8485   14.7255 Q=    0.4170 A=    0.0000 R=    0.0000 C=    0.0000
 XYZ=   18.9235   21.9919   20.0052 Q=   -0.8340 A=    0.0000 R=    0.0000 C=    0.0000
 XYZ=   18.2203   21.5588   20.4892 Q=    0.4170 A=    0.0000 R=    0.0000 C=    0.0000
 XYZ=   18.9748   21.5140   19.1774 Q=    0.4170 A=    0.0000 R=    0.0000 C=    0.0000
 XYZ=   16.4019   16.3248   11.2268 Q=   -0.8340 A=    0.0000 R=    0.0000 C=    0.0000
 XYZ=   16.3670   15.5224   10.7062 Q=    0.4170 A=    0.0000 R=    0.0000 C=    0.0000
 XYZ=   15.5667   16.7594   11.0543 Q=    0.4170 A=    0.0000 R=    0.0000 C=    0.0000
 XYZ=    8.1498    6.4073   22.6267 Q=   -0.8340 A=    0.0000 R=    0.0000 C=    0.0000
 XYZ=    8.1596    6.2653   21.6802 Q=    0.4170 A=    0.0000 R=    0.0000 C=    0.0000
 XYZ=    9.0198    6.1357   22.9192 Q=    0.4170 A=    0.0000 R=    0.0000 C=    0.0000
 XYZ=   26.2130   10.5737   18.0427 Q=   -0.8340 A=    0.0000 R=    0.0000 C=    0.0000
 XYZ=   25.7982   11.1018   18.7248 Q=    0.4170 A=    0.0000 R=    0.0000 C=    0.0000
 XYZ=   26.7632   11.1919   17.5619 Q=    0.4170 A=    0.0000 R=    0.0000 C=    0.0000
 XYZ=   20.1710   13.3044   31.3793 Q=   -0.8340 A=    0.0000 R=    0.0000 C=    0.0000
 XYZ=   19.8061   13.5341   32.2340 Q=    0.4170 A=    0.0000 R=    0.0000 C=    0.0000
 XYZ=   19.6335   13.7871   30.7514 Q=    0.4170 A=    0.0000 R=    0.0000 C=    0.0000
 XYZ=    4.5481   21.3831   14.3521 Q=   -0.8340 A=    0.0000 R=    0.0000 C=    0.0000
 XYZ=    5.0937   20.6406   14.0928 Q=    0.4170 A=    0.0000 R=    0.0000 C=    0.0000
 XYZ=    3.8111   20.9882   14.8180 Q=    0.4170 A=    0.0000 R=    0.0000 C=    0.0000
 XYZ=    6.7301   11.0580    6.3036 Q=   -0.8340 A=    0.0000 R=    0.0000 C=    0.0000
 XYZ=    7.3439   11.7896    6.2389 Q=    0.4170 A=    0.0000 R=    0.0000 C=    0.0000
 XYZ=    6.0933   11.2166    5.6068 Q=    0.4170 A=    0.0000 R=    0.0000 C=    0.0000
 XYZ=   10.7060    8.9917    5.4588 Q=   -0.8340 A=    0.0000 R=    0.0000 C=    0.0000
 XYZ=   10.3005    8.7352    4.6305 Q=    0.4170 A=    0.0000 R=    0.0000 C=    0.0000
 XYZ=   10.2312    8.4925    6.1232 Q=    0.4170 A=    0.0000 R=    0.0000 C=    0.0000
 XYZ=   16.2243   21.8984    4.8750 Q=   -0.8340 A=    0.0000 R=    0.0000 C=    0.0000
 XYZ=   16.8088   22.4207    4.3256 Q=    0.4170 A=    0.0000 R=    0.0000 C=    0.0000
 XYZ=   15.3515   22.2496    4.6985 Q=    0.4170 A=    0.0000 R=    0.0000 C=    0.0000
 XYZ=   24.0724   25.5827   14.9161 Q=   -0.8340 A=    0.0000 R=    0.0000 C=    0.0000
 XYZ=   23.1196   25.4929   14.9007 Q=    0.4170 A=    0.0000 R=    0.0000 C=    0.0000
 XYZ=   24.3173   25.7006   13.9983 Q=    0.4170 A=    0.0000 R=    0.0000 C=    0.0000
 XYZ=   26.2230   18.9114   19.1671 Q=   -0.8340 A=    0.0000 R=    0.0000 C=    0.0000
 XYZ=   26.4891   19.6856   19.6631 Q=    0.4170 A=    0.0000 R=    0.0000 C=    0.0000
 XYZ=   26.1617   19.2158   18.2617 Q=    0.4170 A=    0.0000 R=    0.0000 C=    0.0000
 XYZ=   11.5799   11.6498    5.1752 Q=   -0.8340 A=    0.0000 R=    0.0000 C=    0.0000
 XYZ=   11.2920   10.7520    5.3402 Q=    0.4170 A=    0.0000 R=    0.0000 C=    0.0000
 XYZ=   11.2444   12.1500    5.9192 Q=    0.4170 A=    0.0000 R=    0.0000 C=    0.0000
 XYZ=    3.0291   17.7254   12.2012 Q=   -0.8340 A=    0.0000 R=    0.0000 C=    0.0000
 XYZ=    2.6049   16.9299   11.8795 Q=    0.4170 A=    0.0000 R=    0.0000 C=    0.0000
 XYZ=    3.4416   17.4616   13.0237 Q=    0.4170 A=    0.0000 R=    0.0000 C=    0.0000
 XYZ=   24.7889   22.8135   15.0248 Q=   -0.8340 A=    0.0000 R=    0.0000 C=    0.0000
 XYZ=   24.4613   23.5640   15.5205 Q=    0.4170 A=    0.0000 R=    0.0000 C=    0.0000
 XYZ=   24.1664   22.1112   15.2133 Q=    0.4170 A=    0.0000 R=    0.0000 C=    0.0000
 XYZ=   11.2840    7.2710   18.4570 Q=   -0.8340 A=    0.0000 R=    0.0000 C=    0.0000
 XYZ=   11.9614    7.6728   19.0010 Q=    0.4170 A=    0.0000 R=    0.0000 C=    0.0000
 XYZ=   11.6865    6.4675   18.1272 Q=    0.4170 A=    0.0000 R=    0.0000 C=    0.0000
 XYZ=   12.7846   12.4721   11.6263 Q=   -0.8340 A=    0.0000 R=    0.0000 C=    0.0000
 XYZ=   12.3521   11.6684   11.9146 Q=    0.4170 A=    0.0000 R=    0.0000 C=    0.0000
 XYZ=   12.0804   13.1184   11.5746 Q=    0.4170 A=    0.0000 R=    0.0000 C=    0.0000
 XYZ=    4.8974    7.1276   18.1943 Q=   -0.8340 A=    0.0000 R=    0.0000 C=    0.0000
 XYZ=    5.0913    6.3355   17.6931 Q=    0.4170 A=    0.0000 R=    0.0000 C=    0.0000
 XYZ=    3.9438    7.2047   18.1618 Q=    0.4170 A=    0.0000 R=    0.0000 C=    0.0000
 XYZ=   21.4201   27.9161   14.5232 Q=   -0.8340 A=    0.0000 R=    0.0000 C=    0.0000
 XYZ=   22.3252   28.0102   14.2261 Q=    0.4170 A=    0.0000 R=    0.0000 C=    0.0000
 XYZ=   21.4152   28.2957   15.4018 Q=    0.4170 A=    0.0000 R=    0.0000 C=    0.0000
 XYZ=   12.9390   24.4008    8.0146 Q=   -0.8340 A=    0.0000 R=    0.0000 C=    0.0000
 XYZ=   12.4671   25.2247    7.8934 Q=    0.4170 A=    0.0000 R=    0.0000 C=    0.0000
 XYZ=   12.4818   23.7771    7.4505 Q=    0.4170 A=    0.0000 R=    0.0000 C=    0.0000
 XYZ=   13.9442    9.1049   24.1834 Q=   -0.8340 A=    0.0000 R=    0.0000 C=    0.0000
 XYZ=   13.6632    9.5138   23.3648 Q=    0.4170 A=    0.0000 R=    0.0000 C=    0.0000
 XYZ=   13.6740    9.7207   24.8645 Q=    0.4170 A=    0.0000 R=    0.0000 C=    0.0000
 XYZ=   11.1056   12.2709   25.1896 Q=   -0.8340 A=    0.0000 R=    0.0000 C=    0.0000
 XYZ=   11.8900   12.7615   24.9443 Q=    0.4170 A=    0.0000 R=    0.0000 C=    0.0000
 XYZ=   10.6679   12.0868   24.3585 Q=    0.4170 A=    0.0000 R=    0.0000 C=    0.0000
 XYZ=   14.4829   21.8922    8.0915 Q=   -0.8340 A=    0.0000 R=    0.0000 C=    0.0000
 XYZ=   14.5938   21.5672    7.1980 Q=    0.4170 A=    0.0000 R=    0.0000 C=    0.0000
 XYZ=   13.9732   22.6963    7.9929 Q=    0.4170 A=    0.0000 R=    0.0000 C=    0.0000
 XYZ=   15.6342   21.9428   14.1315 Q=   -0.8340 A=    0.0000 R=    0.0000 C=    0.0000
 XYZ=   15.6453   20.9902   14.2243 Q=    0.4170 A=    0.0000 R=    0.0000 C=    0.0000
 XYZ=   15.2192   22.0965   13.2827 Q=    0.4170 A=    0.0000 R=    0.0000 C=    0.0000
 XYZ=    3.9809   22.4114   18.9966 Q=   -0.8340 A=    0.0000 R=    0.0000 C=    0.0000
 XYZ=    3.7951   23.3079   19.2759 Q=    0.4170 A=    0.0000 R=    0.0000 C=    0.0000
 XYZ=    4.5161   22.5113   18.2093 Q=    0.4170 A=    0.0000 R=    0.0000 C=    0.0000
 XYZ=   21.4688   14.5419    3.3332 Q=   -0.8340 A=    0.0000 R=    0.0000 C=    0.0000
 XYZ=   21.0675   14.6238    2.4680 Q=    0.4170 A=    0.0000 R=    0.0000 C=    0.0000
 XYZ=   21.4464   15.4287    3.6930 Q=    0.4170 A=    0.0000 R=    0.0000 C=    0.0000
 XYZ=   18.1781   13.7717    5.7325 Q=   -0.8340 A=    0.0000 R=    0.0000 C=    0.0000
 XYZ=   17.5051   13.6157    6.3951 Q=    0.4170 A=    0.0000 R=    0.0000 C=    0.0000
 XYZ=   18.3236   14.7175    5.7563 Q=    0.4170 A=    0.0000 R=    0.0000 C=    0.0000
 XYZ=   28.2758   21.1522   12.0646 Q=   -0.8340 A=    0.0000 R=    0.0000 C=    0.0000
 XYZ=   29.0305   20.7891   12.5282 Q=    0.4170 A=    0.0000 R=    0.0000 C=    0.0000
 XYZ=   28.0775   21.9655   12.5288 Q=    0.4170 A=    0.0000 R=    0.0000 C=    0.0000
 XYZ=   18.7502    9.4729    4.7290 Q=   -0.8340 A=    0.0000 R=    0.0000 C=    0.0000
 XYZ=   19.2799    8.6769    4.7732 Q=    0.4170 A=    0.0000 R=    0.0000 C=    0.0000
 XYZ=   17.9120    9.2253    5.1192 Q=    0.4170 A=    0.0000 R=    0.0000 C=    0.0000
 XYZ=    3.4820   10.2015   20.1092 Q=   -0.8340 A=    0.0000 R=    0.0000 C=    0.0000
 XYZ=    3.5881   10.8730   20.7831 Q=    0.4170 A=    0.0000 R=    0.0000 C=    0.0000
 XYZ=    3.3185   10.6930   19.3043 Q=    0.4170 A=    0.0000 R=    0.0000 C=    0.0000
 XYZ=    3.3113   11.0503   17.6039 Q=   -0.8340 A=    0.0000 R=    0.0000 C=    0.0000
 XYZ=    3.9851   10.3832   17.7352 Q=    0.4170 A=    0.0000 R=    0.0000 C=    0.0000
 XYZ=    2.5456   10.5619   17.3018 Q=    0.4170 A=    0.0000 R=    0.0000 C=    0.0000
 XYZ=    7.9552    8.3295   12.0597 Q=   -0.8340 A=    0.0000 R=    0.0000 C=    0.0000
 XYZ=    7.3194    7.8294   12.5716 Q=    0.4170 A=    0.0000 R=    0.0000 C=    0.0000
 XYZ=    7.6616    9.2376   12.1336 Q=    0.4170 A=    0.0000 R=    0.0000 C=    0.0000
 XYZ=   26.7312   19.7613   27.0737 Q=   -0.8340 A=    0.0000 R=    0.0000 C=    0.0000
 XYZ=   27.4837   19.1762   26.9865 Q=    0.4170 A=    0.0000 R=    0.0000 C=    0.0000
 XYZ=   26.1308   19.2950   27.6554 Q=    0.4170 A=    0.0000 R=    0.0000 C=    0.0000
 XYZ=    8.7872    9.8267   24.2308 Q=   -0.8340 A=    0.0000 R=    0.0000 C=    0.0000
 XYZ=    9.3506    9.0960   24.4853 Q=    0.4170 A=    0.0000 R=    0.0000 C=    0.0000
 XYZ=    8.4112   10.1380   25.0541 Q=    0.4170 A=    0.0000 R=    0.0000 C=    0.0000
 XYZ=    9.0160   13.4134   19.0913 Q=   -0.8340 A=    0.0000 R=    0.0000 C=    0.0000
 XYZ=    9.2081   13.7265   19.9752 Q=    0.4170 A=    0.0000 R=    0.0000 C=    0.0000
 XYZ=    9.3513   12.5170   19.0760 Q=    0.4170 A=    0.0000 R=    0.0000 C=    0.0000
 XYZ=   28.7124   14.8453    9.5335 Q=   -0.8340 A=    0.0000 R=    0.0000 C=    0.0000
 XYZ=   29.4324   14.3321    9.1669 Q=    0.4170 A=    0.0000 R=    0.0000 C=    0.0000
 XYZ=   28.9403   14.9529   10.4570 Q=    0.4170 A=    0.0000 R=    0.0000 C=    0.0000
 XYZ=   21.7927   15.5927    8.0076 Q=   -0.8340 A=    0.0000 R=    0.0000 C=    0.0000
 XYZ=   22.2344   14.7684    7.8034 Q=    0.4170 A=    0.0000 R=    0.0000 C=    0.0000
 XYZ=   21.4146   15.4536    8.8759 Q=    0.4170 A=    0.0000 R=    0.0000 C=    0.0000
 XYZ=   14.8590   27.5861   16.1190 Q=   -0.8340 A=    0.0000 R=    0.0000 C=    0.0000
 XYZ=   15.0339   27.1503   15.2849 Q=    0.4170 A=    0.0000 R=    0.0000 C=    0.0000
 XYZ=   15.0078   26.9092   16.7792 Q=    0.4170 A=    0.0000 R=    0.0000 C=    0.0000
 XYZ=   23.7582   19.7329   26.5549 Q=   -0.8340 A=    0.0000 R=    0.0000 C=    0.0000
 XYZ=   23.5921   18.8183   26.7831 Q=    0.4170 A=    0.0000 R=    0.0000 C=    0.0000
 XYZ=   24.6261   19.7258   26.1514 Q=    0.4170 A=    0.0000 R=    0.0000 C=    0.0000
 XYZ=   28.1668    9.2889   11.5068 Q=   -0.8340 A=    0.0000 R=    0.0000 C=    0.0000
 XYZ=   28.9989    9.6069   11.8571 Q=    0.4170 A=    0.0000 R=    0.0000 C=    0.0000
 XYZ=   27.7622   10.0608   11.1110 Q=    0.4170 A=    0.0000 R=    0.0000 C=    0.0000
 XYZ=   10.7126   15.4274   15.5954 Q=   -0.8340 A=    0.0000 R=    0.0000 C=    0.0000
 XYZ=   10.0596   16.0179   15.9711 Q=    0.4170 A=    0.0000 R=    0.0000 C=    0.0000
 XYZ=   11.4069   15.3878   16.2532 Q=    0.4170 A=    0.0000 R=    0.0000 C=    0.0000
 XYZ=   14.2922   29.6231   12.6095 Q=   -0.8340 A=    0.0000 R=    0.0000 C=    0.0000
 XYZ=   13.6071   29.1398   13.0713 Q=    0.4170 A=    0.0000 R=    0.0000 C=    0.0000
 XYZ=   15.0971   29.4077   13.0808 Q=    0.4170 A=    0.0000 R=    0.0000 C=    0.0000
 XYZ=    8.8442   21.3980   24.1068 Q=   -0.8340 A=    0.0000 R=    0.0000 C=    0.0000
 XYZ=    7.9948   21.1011   24.4332 Q=    0.4170 A=    0.0000 R=    0.0000 C=    0.0000
 XYZ=    9.4255   21.3422   24.8652 Q=    0.4170 A=    0.0000 R=    0.0000 C=    0.0000
 XYZ=   19.8366   11.3039   20.9682 Q=   -0.8340 A=    0.0000 R=    0.0000 C=    0.0000
 XYZ=   20.2602   10.8993   20.2111 Q=    0.4170 A=    0.0000 R=    0.0000 C=    0.0000
 XYZ=   19.7157   12.2190   20.7149 Q=    0.4170 A=    0.0000 R=    0.0000 C=    0.0000
 XYZ=    7.4571   23.2250   22.0486 Q=   -0.8340 A=    0.0000 R=    0.0000 C=    0.0000
 XYZ=    7.3312   22.3068   22.2879 Q=    0.4170 A=    0.0000 R=    0.0000 C=    0.0000
 XYZ=    8.3491   23.4266   22.3314 Q=    0.4170 A=    0.0000 R=    0.0000 C=    0.0000
 XYZ=   27.2653   19.2442    8.6924 Q=   -0.8340 A=    0.0000 R=    0.0000 C=    0.0000
 XYZ=   26.3883   18.9765    8.9670 Q=    0.4170 A=    0.0000 R=    0.0000 C=    0.0000
 XYZ=   27.5165   18.6001    8.0304 Q=    0.4170 A=    0.0000 R=    0.0000 C=    0.0000
 XYZ=    8.7684   12.9519   28.3447 Q=   -0.8340 A=    0.0000 R=    0.0000 C=    0.0000
 XYZ=    8.3295   12.8438   29.1884 Q=    0.4170 A=    0.0000 R=    0.0000 C=    0.0000
 XYZ=    8.7333   13.8933   28.1747 Q=    0.4170 A=    0.0000 R=    0.0000 C=    0.0000
 XYZ=   13.8779   23.2129    4.2572 Q=   -0.8340 A=    0.0000 R=    0.0000 C=    0.0000
 XYZ=   14.1426   23.6153    5.0843 Q=    0.4170 A=    0.0000 R=    0.0000 C=    0.0000
 XYZ=   12.9616   23.4677    4.1488 Q=    0.4170 A=    0.0000 R=    0.0000 C=    0.0000
 XYZ=   27.3321   22.7606   16.3789 Q=   -0.8340 A=    0.0000 R=    0.0000 C=    0.0000
 XYZ=   26.7906   23.1455   17.0680 Q=    0.4170 A=    0.0000 R=    0.0000 C=    0.0000
 XYZ=   26.8127   22.8614   15.5812 Q=    0.4170 A=    0.0000 R=    0.0000 C=    0.0000
 XYZ=   27.5800   16.7246    7.7140 Q=   -0.8340 A=    0.0000 R=    0.0000 C=    0.0000
 XYZ=   28.1940   16.5054    7.0131 Q=    0.4170 A=    0.0000 R=    0.0000 C=    0.0000
 XYZ=   27.9306   16.2821    8.4871 Q=    0.4170 A=    0.0000 R=    0.0000 C=    0.0000
 XYZ=   15.6871   10.0206   20.6949 Q=   -0.8340 A=    0.0000 R=    0.0000 C=    0.0000
 XYZ=   15.9903   10.0774   19.7888 Q=    0.4170 A=    0.0000 R=    0.0000 C=    0.0000
 XYZ=   15.9756   10.8403   21.0963 Q=    0.4170 A=    0.0000 R=    0.0000 C=    0.0000
 XYZ=   16.3055   17.5024   25.7299 Q=   -0.8340 A=    0.0000 R=    0.0000 C=    0.0000
 XYZ=   15.4098   17.5069   25.3923 Q=    0.4170 A=    0.0000 R=    0.0000 C=    0.0000
 XYZ=   16.6348   18.3827   25.5485 Q=    0.4170 A=    0.0000 R=    0.0000 C=    0.0000
 XYZ=   21.9322   23.6298   23.9073 Q=   -0.8340 A=    0.0000 R=    0.0000 C=    0.0000
 XYZ=   21.7561   22.9620   24.5701 Q=    0.4170 A=    0.0000 R=    0.0000 C=    0.0000
 XYZ=   22.8200   23.4391   23.6045 Q=    0.4170 A=    0.0000 R=    0.0000 C=    0.0000
 XYZ=    9.4928   24.8721   23.9834 Q=   -0.8340 A=    0.0000 R=    0.0000 C=    0.0000
 XYZ=    9.8871   24.9540   24.8517 Q=    0.4170 A=    0.0000 R=    0.0000 C=    0.0000
 XYZ=    8.6907   24.3708   24.1304 Q=    0.4170 A=    0.0000 R=    0.0000 C=    0.0000
 XYZ=   22.6749    7.2281   19.6924 Q=   -0.8340 A=    0.0000 R=    0.0000 C=    0.0000
 XYZ=   22.7774    7.2199   20.6441 Q=    0.4170 A=    0.0000 R=    0.0000 C=    0.0000
 XYZ=   23.4512    6.7751   19.3634 Q=    0.4170 A=    0.0000 R=    0.0000 C=    0.0000
 XYZ=   14.3521   13.9951   29.3484 Q=   -0.8340 A=    0.0000 R=    0.0000 C=    0.0000
 XYZ=   13.9474   14.8463   29.5155 Q=    0.4170 A=    0.0000 R=    0.0000 C=    0.0000
 XYZ=   13.6470   13.4620   28.9813 Q=    0.4170 A=    0.0000 R=    0.0000 C=    0.0000
 XYZ=    9.5167   16.7900   11.0994 Q=   -0.8340 A=    0.0000 R=    0.0000 C=    0.0000
 XYZ=    9.9436   17.5301   10.6678 Q=    0.4170 A=    0.0000 R=    0.0000 C=    0.0000
 XYZ=    8.9125   17.1921   11.7235 Q=    0.4170 A=    0.0000 R=    0.0000 C=    0.0000
 XYZ=   24.8499   13.1730   27.5142 Q=   -0.8340 A=    0.0000 R=    0.0000 C=    0.0000
 XYZ=   24.0550   13.1359   28.0461 Q=    0.4170 A=    0.0000 R=    0.0000 C=    0.0000
 XYZ=   25.4460   12.5500   27.9298 Q=    0.4170 A=    0.0000 R=    0.0000 C=    0.0000
 XYZ=   12.1026   28.5532   13.6897 Q=   -0.8340 A=    0.0000 R=    0.0000 C=    0.0000
 XYZ=   11.5290   28.7447   12.9476 Q=    0.4170 A=    0.0000 R=    0.0000 C=    0.0000
 XYZ=   11.7289   27.7654   14.0847 Q=    0.4170 A=    0.0000 R=    0.0000 C=    0.0000
 XYZ=   13.6189   20.5895    5.5858 Q=   -0.8340 A=    0.0000 R=    0.0000 C=    0.0000
 XYZ=   13.2635   20.8920    4.7501 Q=    0.4170 A=    0.0000 R=    0.0000 C=    0.0000
 XYZ=   13.8265   19.6668    5.4384 Q=    0.4170 A=    0.0000 R=    0.0000 C=    0.0000
 XYZ=   26.0290   11.9800   24.0181 Q=   -0.8340 A=    0.0000 R=    0.0000 C=    0.0000
 XYZ=   26.2315   12.6532   23.3686 Q=    0.4170 A=    0.0000 R=    0.0000 C=    0.0000
 XYZ=   25.1010   11.7880   23.8834 Q=    0.4170 A=    0.0000 R=    0.0000 C=    0.0000
 XYZ=    7.1015   26.5802   16.3700 Q=   -0.8340 A=    0.0000 R=    0.0000 C=    0.0000
 XYZ=    7.5164   25.7390   16.1794 Q=    0.4170 A=    0.0000 R=    0.0000 C=    0.0000
 XYZ=    7.8302   27.1971   16.4389 Q=    0.4170 A=    0.0000 R=    0.0000 C=    0.0000
 XYZ=   15.3171   26.8536   20.2264 Q=   -0.8340 A=    0.0000 R=    0.0000 C=    0.0000
 XYZ=   15.8212   26.5398   20.9772 Q=    0.4170 A=    0.0000 R=    0.0000 C=    0.0000
 XYZ=   15.6134   26.3118   19.4951 Q=    0.4170 A=    0.0000 R=    0.0000 C=    0.0000
 XYZ=   22.0315    4.0458   17.2347 Q=   -0.8340 A=    0.0000 R=    0.0000 C=    0.0000
 XYZ=   21.2024    4.4353   17.5124 Q=    0.4170 A=    0.0000 R=    0.0000 C=    0.0000
 XYZ=   22.1191    3.2590   17.7726 Q=    0.4170 A=    0.0000 R=    0.0000 C=    0.0000
 XYZ=    4.6839    7.9858   15.5326 Q=   -0.8340 A=    0.0000 R=    0.0000 C=    0.0000
 XYZ=    5.5755    8.2423   15.2973 Q=    0.4170 A=    0.0000 R=    0.0000 C=    0.0000
 XYZ=    4.7243    7.8125   16.4731 Q=    0.4170 A=    0.0000 R=    0.0000 C=    0.0000
 XYZ=   13.2263    8.7136   19.6116 Q=   -0.8340 A=    0.0000 R=    0.0000 C=    0.0000
 XYZ=   13.9775    8.8088   20.1971 Q=    0.4170 A=    0.0000 R=    0.0000 C=    0.0000
 XYZ=   13.2762    9.4734   19.0316 Q=    0.4170 A=    0.0000 R=    0.0000 C=    0.0000
 XYZ=   17.8318   13.6139   24.2449 Q=   -0.8340 A=    0.0000 R=    0.0000 C=    0.0000
 XYZ=   18.7642   13.3997   24.2784 Q=    0.4170 A=    0.0000 R=    0.0000 C=    0.0000
 XYZ=   17.4760   13.0323   23.5731 Q=    0.4170 A=    0.0000 R=    0.0000 C=    0.0000
 XYZ=   16.6064    8.5970    6.2863 Q=   -0.8340 A=    0.0000 R=    0.0000 C=    0.0000
 XYZ=   16.8272    9.3102    6.8854 Q=    0.4170 A=    0.0000 R=    0.0000 C=    0.0000
 XYZ=   15.6509    8.5468    6.3147 Q=    0.4170 A=    0.0000 R=    0.0000 C=    0.0000
 XYZ=   26.3979    7.0470   20.0452 Q=   -0.8340 A=    0.0000 R=    0.0000 C=    0.0000
 XYZ=   26.7516    6.2311   20.3993 Q=    0.4170 A=    0.0000 R=    0.0000 C=    0.0000
 XYZ=   26.3216    6.8873   19.1046 Q=    0.4170 A=    0.0000 R=    0.0000 C=    0.0000
 XYZ=   25.8030   15.9690   11.7060 Q=   -0.8340 A=    0.0000 R=    0.0000 C=    0.0000
 XYZ=   25.1570   16.3216   11.0939 Q=    0.4170 A=    0.0000 R=    0.0000 C=    0.0000
 XYZ=   25.6088   15.0326   11.7468 Q=    0.4170 A=    0.0000 R=    0.0000 C=    0.0000
 XYZ=   21.2129   16.8103    5.2314 Q=   -0.8340 A=    0.0000 R=    0.0000 C=    0.0000
 XYZ=   20.4451   17.3691    5.3514 Q=    0.4170 A=    0.0000 R=    0.0000 C=    0.0000
 XYZ=   21.5686   16.6986    6.1131 Q=    0.4170 A=    0.0000 R=    0.0000 C=    0.0000
 XYZ=   27.4535   12.1275   16.2593 Q=   -0.8340 A=    0.0000 R=    0.0000 C=    0.0000
 XYZ=   27.2782   13.0654   16.3357 Q=    0.4170 A=    0.0000 R=    0.0000 C=    0.0000
 XYZ=   27.1655   11.9008   15.3750 Q=    0.4170 A=    0.0000 R=    0.0000 C=    0.0000
 XYZ=   21.4496    6.7911   13.8533 Q=   -0.8340 A=    0.0000 R=    0.0000 C=    0.0000
 XYZ=   20.9447    7.2462   14.5273 Q=    0.4170 A=    0.0000 R=    0.0000 C=    0.0000
 XYZ=   21.7654    7.4882   13.2783 Q=    0.4170 A=    0.0000 R=    0.0000 C=    0.0000
 XYZ=   13.9103   15.4438    4.5657 Q=   -0.8340 A=    0.0000 R=    0.0000 C=    0.0000
 XYZ=   14.3930   14.6682    4.8515 Q=    0.4170 A=    0.0000 R=    0.0000 C=    0.0000
 XYZ=   13.3875   15.1411    3.8233 Q=    0.4170 A=    0.0000 R=    0.0000 C=    0.0000
 XYZ=    9.2739   25.0010   17.9707 Q=   -0.8340 A=    0.0000 R=    0.0000 C=    0.0000
 XYZ=    9.3048   25.8832   17.6006 Q=    0.4170 A=    0.0000 R=    0.0000 C=    0.0000
 XYZ=    9.9948   24.5369   17.5452 Q=    0.4170 A=    0.0000 R=    0.0000 C=    0.0000
 XYZ=   30.2596   19.0983   22.4243 Q=   -0.8340 A=    0.0000 R=    0.0000 C=    0.0000
 XYZ=   29.3750   18.7341   22.4572 Q=    0.4170 A=    0.0000 R=    0.0000 C=    0.0000
 XYZ=   30.6385   18.8857   23.2772 Q=    0.4170 A=    0.0000 R=    0.0000 C=    0.0000
 XYZ=    2.9275   13.7683   16.8450 Q=   -0.8340 A=    0.0000 R=    0.0000 C=    0.0000
 XYZ=    3.6952   14.1251   16.3981 Q=    0.4170 A=    0.0000 R=    0.0000 C=    0.0000
 XYZ=    3.2158   12.9170   17.1745 Q=    0.4170 A=    0.0000 R=    0.0000 C=    0.0000
 XYZ=   10.1725   18.0337   28.2265 Q=   -0.8340 A=    0.0000 R=    0.0000 C=    0.0000
 XYZ=    9.7773   18.0378   29.0983 Q=    0.4170 A=    0.0000 R=    0.0000 C=    0.0000
 XYZ=   10.8045   18.7523   28.2461 Q=    0.4170 A=    0.0000 R=    0.0000 C=    0.0000
 XYZ=   22.5710   20.4060   15.4918 Q=   -0.8340 A=    0.0000 R=    0.0000 C=    0.0000
 XYZ=   21.8127   20.8923   15.1682 Q=    0.4170 A=    0.0000 R=    0.0000 C=    0.0000
 XYZ=   22.4965   19.5445   15.0814 Q=    0.4170 A=    0.0000 R=    0.0000 C=    0.0000
 XYZ=    9.5579   24.9080   13.1675 Q=   -0.8340 A=    0.0000 R=    0.0000 C=    0.0000
 XYZ=    9.7547   24.0095   12.9027 Q=    0.4170 A=    0.0000 R=    0.0000 C=    0.0000
 XYZ=    9.9386   25.4506   12.4769 Q=    0.4170 A=    0.0000 R=    0.0000 C=    0.0000
 XYZ=    5.8904   12.7662   21.5281 Q=   -0.8340 A=    0.0000 R=    0.0000 C=    0.0000
 XYZ=    6.2295   11.9657   21.9286 Q=    0.4170 A=    0.0000 R=    0.0000 C=    0.0000
 XYZ=    5.1157   12.9843   22.0463 Q=    0.4170 A=    0.0000 R=    0.0000 C=    0.0000
 XYZ=   22.3548   21.8606   26.0733 Q=   -0.8340 A=    0.0000 R=    0.0000 C=    0.0000
 XYZ=   22.9929   22.4478   26.4788 Q=    0.4170 A=    0.0000 R=    0.0000 C=    0.0000
 XYZ=   22.7997   21.0141   26.0326 Q=    0.4170 A=    0.0000 R=    0.0000 C=    0.0000
 XYZ=   26.3374   11.0796   13.8949 Q=   -0.8340 A=    0.0000 R=    0.0000 C=    0.0000
 XYZ=   26.4554   11.0745   12.9450 Q=    0.4170 A=    0.0000 R=    0.0000 C=    0.0000
 XYZ=   26.0926   10.1799   14.1111 Q=    0.4170 A=    0.0000 R=    0.0000 C=    0.0000
 XYZ=   22.1353   15.2541   24.5599 Q=   -0.8340 A=    0.0000 R=    0.0000 C=    0.0000
 XYZ=   21.5298   15.8186   25.0404 Q=    0.4170 A=    0.0000 R=    0.0000 C=    0.0000
 XYZ=   22.9834   15.4003   24.9788 Q=    0.4170 A=    0.0000 R=    0.0000 C=    0.0000
 XYZ=   25.1826   25.0917   17.2625 Q=   -0.8340 A=    0.0000 R=    0.0000 C=    0.0000
 XYZ=   24.8257   25.2047   16.3815 Q=    0.4170 A=    0.0000 R=    0.0000 C=    0.0000
 XYZ=   25.8057   25.8113   17.3631 Q=    0.4170 A=    0.0000 R=    0.0000 C=    0.0000
 XYZ=   13.7417    6.2966   14.1981 Q=   -0.8340 A=    0.0000 R=    0.0000 C=    0.0000
 XYZ=   14.5136    6.3957   13.6408 Q=    0.4170 A=    0.0000 R=    0.0000 C=    0.0000
 XYZ=   13.9594    5.5707   14.7828 Q=    0.4170 A=    0.0000 R=    0.0000 C=    0.0000
 XYZ=    8.7309   28.8488   19.6898 Q=   -0.8340 A=    0.0000 R=    0.0000 C=    0.0000
 XYZ=    8.8882   27.9056   19.7329 Q=    0.4170 A=    0.0000 R=    0.0000 C=    0.0000
 XYZ=    9.6034   29.2342   19.6097 Q=    0.4170 A=    0.0000 R=    0.0000 C=    0.0000
 XYZ=   21.1821    7.9365   24.7473 Q=   -0.8340 A=    0.0000 R=    0.0000 C=    0.0000
 XYZ=   21.2713    6.9975   24.5848 Q=    0.4170 A=    0.0000 R=    0.0000 C=    0.0000
 XYZ=   20.8070    8.2855   23.9388 Q=    0.4170 A=    0.0000 R=    0.0000 C=    0.0000
 XYZ=   15.9093   26.5580   13.8565 Q=   -0.8340 A=    0.0000 R=    0.0000 C=    0.0000
 XYZ=   16.2994   27.4040   13.6364 Q=    0.4170 A=    0.0000 R=    0.0000 C=    0.0000
 XYZ=   16.6573   25.9732   13.9779 Q=    0.4170 A=    0.0000 R=    0.0000 C=    0.0000
 XYZ=   21.8033   27.0383    8.0034 Q=   -0.8340 A=    0.0000 R=    0.0000 C=    0.0000
 XYZ=   21.7672   27.2312    7.0665 Q=    0.4170 A=    0.0000 R=    0.0000 C=    0.0000
 XYZ=   22.0620   26.1179    8.0491 Q=    0.4170 A=    0.0000 R=    0.0000 C=    0.0000
 XYZ=   22.2124   29.6035   10.1500 Q=   -0.8340 A=    0.0000 R=    0.0000 C=    0.0000
 XYZ=   21.6972   29.4718    9.3541 Q=    0.4170 A=    0.0000 R=    0.0000 C=    0.0000
 XYZ=   22.0011   28.8493   10.7002 Q=    0.4170 A=    0.0000 R=    0.0000 C=    0.0000
 XYZ=   22.7657   18.5364    7.4050 Q=   -0.8340 A=    0.0000 R=    0.0000 C=    0.0000
 XYZ=   23.3213   18.7426    8.1568 Q=    0.4170 A=    0.0000 R=    0.0000 C=    0.0000
 XYZ=   23.3643   18.5331    6.6580 Q=    0.4170 A=    0.0000 R=    0.0000 C=    0.0000
 XYZ=   16.3807   12.6449    7.4960 Q=   -0.8340 A=    0.0000 R=    0.0000 C=    0.0000
 XYZ=   15.5943   12.7704    6.9649 Q=    0.4170 A=    0.0000 R=    0.0000 C=    0.0000
 XYZ=   16.3301   11.7349    7.7884 Q=    0.4170 A=    0.0000 R=    0.0000 C=    0.0000
 XYZ=   21.9827    8.4837    7.8515 Q=   -0.8340 A=    0.0000 R=    0.0000 C=    0.0000
 XYZ=   21.8799    7.5330    7.8963 Q=    0.4170 A=    0.0000 R=    0.0000 C=    0.0000
 XYZ=   21.8132    8.7004    6.9347 Q=    0.4170 A=    0.0000 R=    0.0000 C=    0.0000
 XYZ=   19.9686   12.5283    7.5487 Q=   -0.8340 A=    0.0000 R=    0.0000 C=    0.0000
 XYZ=   20.6850   12.2530    6.9767 Q=    0.4170 A=    0.0000 R=    0.0000 C=    0.0000
 XYZ=   19.3537   12.9737    6.9658 Q=    0.4170 A=    0.0000 R=    0.0000 C=    0.0000
 XYZ=   20.0974   23.2959    7.1570 Q=   -0.8340 A=    0.0000 R=    0.0000 C=    0.0000
 XYZ=   19.3334   23.7023    6.7479 Q=    0.4170 A=    0.0000 R=    0.0000 C=    0.0000
 XYZ=   19.9742   22.3572    7.0161 Q=    0.4170 A=    0.0000 R=    0.0000 C=    0.0000
 XYZ=   12.5474   10.6588   27.3510 Q=   -0.8340 A=    0.0000 R=    0.0000 C=    0.0000
 XYZ=   12.7328   11.4146   27.9083 Q=    0.4170 A=    0.0000 R=    0.0000 C=    0.0000
 XYZ=   11.9314   10.9884   26.6967 Q=    0.4170 A=    0.0000 R=    0.0000 C=    0.0000
 XYZ=   13.1522   13.3248   23.5653 Q=   -0.8340 A=    0.0000 R=    0.0000 C=    0.0000
 XYZ=   13.1866   12.4200   23.2552 Q=    0.4170 A=    0.0000 R=    0.0000 C=    0.0000
 XYZ=   13.7570   13.7977   22.9936 Q=    0.4170 A=    0.0000 R=    0.0000 C=    0.0000
 XYZ=    7.2315   25.9959   12.1876 Q=   -0.8340 A=    0.0000 R=    0.0000 C=    0.0000
 XYZ=    6.9950   25.3626   11.5101 Q=    0.4170 A=    0.0000 R=    0.0000 C=    0.0000
 XYZ=    7.9917   25.6095   12.6225 Q=    0.4170 A=    0.0000 R=    0.0000 C=    0.0000
 XYZ=   12.5904    7.8486   26.6215 Q=   -0.8340 A=    0.0000 R=    0.0000 C=    0.0000
 XYZ=   12.5550    7.2695   27.3829 Q=    0.4170 A=    0.0000 R=    0.0000 C=    0.0000
 XYZ=   12.4599    8.7260   26.9811 Q=    0.4170 A=    0.0000 R=    0.0000 C=    0.0000
 XYZ=    6.3292   21.1128   25.2062 Q=   -0.8340 A=    0.0000 R=    0.0000 C=    0.0000
 XYZ=    5.9700   20.4549   24.6108 Q=    0.4170 A=    0.0000 R=    0.0000 C=    0.0000
 XYZ=    5.9199   21.9336   24.9321 Q=    0.4170 A=    0.0000 R=    0.0000 C=    0.0000
 XYZ=   30.8822   17.8090   17.8661 Q=   -0.8340 A=    0.0000 R=    0.0000 C=    0.0000
 XYZ=   31.1300   18.2420   18.6830 Q=    0.4170 A=    0.0000 R=    0.0000 C=    0.0000
 XYZ=   30.5706   18.5180   17.3035 Q=    0.4170 A=    0.0000 R=    0.0000 C=    0.0000
 XYZ=   21.4623   24.2050   20.5434 Q=   -0.8340 A=    0.0000 R=    0.0000 C=    0.0000
 XYZ=   20.9919   23.4285   20.8466 Q=    0.4170 A=    0.0000 R=    0.0000 C=    0.0000
 XYZ=   21.7572   23.9779   19.6615 Q=    0.4170 A=    0.0000 R=    0.0000 C=    0.0000
 XYZ=    4.5337   16.9229   21.8747 Q=   -0.8340 A=    0.0000 R=    0.0000 C=    0.0000
 XYZ=    5.2776   17.2278   21.3553 Q=    0.4170 A=    0.0000 R=    0.0000 C=    0.0000
 XYZ=    4.9079   16.2767   22.4736 Q=    0.4170 A=    0.0000 R=    0.0000 C=    0.0000
 XYZ=   10.2918   16.3973    2.4743 Q=   -0.8340 A=    0.0000 R=    0.0000 C=    0.0000
 XYZ=    9.4950   16.0151    2.8420 Q=    0.4170 A=    0.0000 R=    0.0000 C=    0.0000
 XYZ=   10.4928   17.1342    3.0513 Q=    0.4170 A=    0.0000 R=    0.0000 C=    0.0000
 XYZ=   16.6281   13.9498    9.9160 Q=   -0.8340 A=    0.0000 R=    0.0000 C=    0.0000
 XYZ=   17.5516   13.7548   10.0752 Q=    0.4170 A=    0.0000 R=    0.0000 C=    0.0000
 XYZ=   16.3601   13.3159    9.2508 Q=    0.4170 A=    0.0000 R=    0.0000 C=    0.0000
 XYZ=    2.2984   17.9982   18.6467 Q=   -0.8340 A=    0.0000 R=    0.0000 C=    0.0000
 XYZ=    2.3745   17.3867   19.3792 Q=    0.4170 A=    0.0000 R=    0.0000 C=    0.0000
 XYZ=    2.3480   18.8644   19.0510 Q=    0.4170 A=    0.0000 R=    0.0000 C=    0.0000
 XYZ=   19.5010   23.2983   11.1829 Q=   -0.8340 A=    0.0000 R=    0.0000 C=    0.0000
 XYZ=   18.8230   23.8286   10.7639 Q=    0.4170 A=    0.0000 R=    0.0000 C=    0.0000
 XYZ=   19.7132   22.6254   10.5361 Q=    0.4170 A=    0.0000 R=    0.0000 C=    0.0000
 XYZ=    4.1636   14.4355   12.1503 Q=   -0.8340 A=    0.0000 R=    0.0000 C=    0.0000
 XYZ=    5.0099   14.8629   12.2814 Q=    0.4170 A=    0.0000 R=    0.0000 C=    0.0000
 XYZ=    4.3734   13.5042   12.0802 Q=    0.4170 A=    0.0000 R=    0.0000 C=    0.0000
 XYZ=    8.0835   15.1115   16.8811 Q=   -0.8340 A=    0.0000 R=    0.0000 C=    0.0000
 XYZ=    8.4491   15.4579   17.6951 Q=    0.4170 A=    0.0000 R=    0.0000 C=    0.0000
 XYZ=    8.5069   14.2601   16.7710 Q=    0.4170 A=    0.0000 R=    0.0000 C=    0.0000
 XYZ=   30.1801   10.4451   16.4248 Q=   -0.8340 A=    0.0000 R=    0.0000 C=    0.0000
 XYZ=   30.5905   11.0679   17.0248 Q=    0.4170 A=    0.0000 R=    0.0000 C=    0.0000
 XYZ=   29.2431   10.6293   16.4917 Q=    0.4170 A=    0.0000 R=    0.0000 C=    0.0000
 XYZ=   26.5598    9.3343   21.8620 Q=   -0.8340 A=    0.0000 R=    0.0000 C=    0.0000
 XYZ=   26.5482    8.5943   21.2551 Q=    0.4170 A=    0.0000 R=    0.0000 C=    0.0000
 XYZ=   26.4310    8.9395   22.7244 Q=    0.4170 A=    0.0000 R=    0.0000 C=    0.0000
 XYZ=   14.3566   24.3929   15.7408 Q=   -0.8340 A=    0.0000 R=    0.0000 C=    0.0000
 XYZ=   14.0148   24.5355   14.8582 Q=    0.4170 A=    0.0000 R=    0.0000 C=    0.0000
 XYZ=   14.6845   23.4937   15.7288 Q=    0.4170 A=    0.0000 R=    0.0000 C=    0.0000
 XYZ=    9.0477   15.6490   28.5509 Q=   -0.8340 A=    0.0000 R=    0.0000 C=    0.0000
 XYZ=    9.6146   16.4135   28.4494 Q=    0.4170 A=    0.0000 R=    0.0000 C=    0.0000
 XYZ=    9.1069   15.4280   29.4804 Q=    0.4170 A=    0.0000 R=    0.0000 C=    0.0000
 XYZ=   11.4126   18.8175   20.3523 Q=   -0.8340 A=    0.0000 R=    0.0000 C=    0.0000
 XYZ=   10.7349   18.8849   21.0248 Q=    0.4170 A=    0.0000 R=    0.0000 C=    0.0000
 XYZ=   11.4413   19.6866   19.9524 Q=    0.4170 A=    0.0000 R=    0.0000 C=    0.0000
 XYZ=   16.1637    6.9818   12.9073 Q=   -0.8340 A=    0.0000 R=    0.0000 C=    0.0000
 XYZ=   16.9964    7.1000   13.3643 Q=    0.4170 A=    0.0000 R=    0.0000 C=    0.0000
 XYZ=   16.3318    6.2783   12.2803 Q=    0.4170 A=    0.0000 R=    0.0000 C=    0.0000
 XYZ=   29.0222   11.4863   21.3748 Q=   -0.8340 A=    0.0000 R=    0.0000 C=    0.0000
 XYZ=   28.1804   11.2195   21.7441 Q=    0.4170 A=    0.0000 R=    0.0000 C=    0.0000
 XYZ=   29.6739   11.0451   21.9196 Q=    0.4170 A=    0.0000 R=    0.0000 C=    0.0000
 XYZ=   20.7605    8.9732   15.4943 Q=   -0.8340 A=    0.0000 R=    0.0000 C=    0.0000
 XYZ=   21.3388    8.6520   16.1861 Q=    0.4170 A=    0.0000 R=    0.0000 C=    0.0000
 XYZ=   20.8786    9.9230   15.5045 Q=    0.4170 A=    0.0000 R=    0.0000 C=    0.0000
 XYZ=   21.8148   13.9585   14.9252 Q=   -0.8340 A=    0.0000 R=    0.0000 C=    0.0000
 XYZ=   22.3975   14.4390   14.3371 Q=    0.4170 A=    0.0000 R=    0.0000 C=    0.0000
 XYZ=   21.2669   13.4321   14.3429 Q=    0.4170 A=    0.0000 R=    0.0000 C=    0.0000
 XYZ=   19.4861   26.9695   22.7953 Q=   -0.8340 A=    0.0000 R=    0.0000 C=    0.0000
 XYZ=   19.7305   27.8795   22.9640 Q=    0.4170 A=    0.0000 R=    0.0000 C=    0.0000
 XYZ=   20.2824   26.5676   22.4479 Q=    0.4170 A=    0.0000 R=    0.0000 C=    0.0000
 XYZ=   25.2363    5.9874   13.2529 Q=   -0.8340 A=    0.0000 R=    0.0000 C=    0.0000
 XYZ=   24.7150    6.5887   12.7210 Q=    0.4170 A=    0.0000 R=    0.0000 C=    0.0000
 XYZ=   24.5903    5.4806   13.7449 Q=    0.4170 A=    0.0000 R=    0.0000 C=    0.0000
 XYZ=   26.2019    9.5059   25.3758 Q=   -0.8340 A=    0.0000 R=    0.0000 C=    0.0000
 XYZ=   25.2866    9.2431   25.2791 Q=    0.4170 A=    0.0000 R=    0.0000 C=    0.0000
 XYZ=   26.1882   10.4592   25.2902 Q=    0.4170 A=    0.0000 R=    0.0000 C=    0.0000
 XYZ=   22.8414   19.0180    4.0547 Q=   -0.8340 A=    0.0000 R=    0.0000 C=    0.0000
 XYZ=   22.1436   18.3781    4.1956 Q=    0.4170 A=    0.0000 R=    0.0000 C=    0.0000
 XYZ=   23.0888   18.9051    3.1370 Q=    0.4170 A=    0.0000 R=    0.0000 C=    0.0000
 XYZ=    4.2618   18.7523   24.2727 Q=   -0.8340 A=    0.0000 R=    0.0000 C=    0.0000
 XYZ=    4.2308   19.6155   23.8602 Q=    0.4170 A=    0.0000 R=    0.0000 C=    0.0000
 XYZ=    3.9983   18.1460   23.5805 Q=    0.4170 A=    0.0000 R=    0.0000 C=    0.0000
 XYZ=   26.4607   20.3644   22.0439 Q=   -0.8340 A=    0.0000 R=    0.0000 C=    0.0000
 XYZ=   25.5776   20.5905   21.7518 Q=    0.4170 A=    0.0000 R=    0.0000 C=    0.0000
 XYZ=   26.3247   19.7575   22.7715 Q=    0.4170 A=    0.0000 R=    0.0000 C=    0.0000
 XYZ=    8.5884   21.4518   15.2658 Q=   -0.8340 A=    0.0000 R=    0.0000 C=    0.0000
 XYZ=    8.0818   21.6302   14.4735 Q=    0.4170 A=    0.0000 R=    0.0000 C=    0.0000
 XYZ=    8.1051   20.7535   15.7075 Q=    0.4170 A=    0.0000 R=    0.0000 C=    0.0000
 XYZ=   16.2487   21.4154   20.9945 Q=   -0.8340 A=    0.0000 R=    0.0000 C=    0.0000
 XYZ=   16.1467   22.2682   21.4170 Q=    0.4170 A=    0.0000 R=    0.0000 C=    0.0000
 XYZ=   15.6927   20.8266   21.5050 Q=    0.4170 A=    0.0000 R=    0.0000 C=    0.0000
 XYZ=   13.4262    5.2155   18.1601 Q=   -0.8340 A=    0.0000 R=    0.0000 C=    0.0000
 XYZ=   13.9824    5.3328   18.9303 Q=    0.4170 A=    0.0000 R=    0.0000 C=    0.0000
 XYZ=   14.0389    5.0386   17.4463 Q=    0.4170 A=    0.0000 R=    0.0000 C=    0.0000
 XYZ=   16.3474   17.3730   30.7409 Q=   -0.8340 A=    0.0000 R=    0.0000 C=    0.0000
 XYZ=   17.2257   17.5856   30.4252 Q=    0.4170 A=    0.0000 R=    0.0000 C=    0.0000
 XYZ=   15.7600   17.7313   30.0754 Q=    0.4170 A=    0.0000 R=    0.0000 C=    0.0000
 XYZ=   16.9195   30.0744   21.8813 Q=   -0.8340 A=    0.0000 R=    0.0000 C=    0.0000
 XYZ=   17.5169   30.7505   22.2013 Q=    0.4170 A=    0.0000 R=    0.0000 C=    0.0000
 XYZ=   17.4536   29.5414   21.2924 Q=    0.4170 A=    0.0000 R=    0.0000 C=    0.0000
 XYZ=   21.1220   11.5295   16.2491 Q=   -0.8340 A=    0.0000 R=    0.0000 C=    0.0000
 XYZ=   21.8263   11.0986   16.7335 Q=    0.4170 A=    0.0000 R=    0.0000 C=    0.0000
 XYZ=   21.5555   12.2405   15.7770 Q=    0.4170 A=    0.0000 R=    0.0000 C=    0.0000
 XYZ=   11.8837   20.4131    3.1918 Q=   -0.8340 A=    0.0000 R=    0.0000 C=    0.0000
 XYZ=   11.1942   19.9394    2.7265 Q=    0.4170 A=    0.0000 R=    0.0000 C=    0.0000
 XYZ=   11.5166   21.2842    3.3424 Q=    0.4170 A=    0.0000 R=    0.0000 C=    0.0000
 XYZ=    9.8939   20.4767    6.0773 Q=   -0.8340 A=    0.0000 R=    0.0000 C=    0.0000
 XYZ=   10.4924   19.9412    6.5981 Q=    0.4170 A=    0.0000 R=    0.0000 C=    0.0000
 XYZ=    9.7456   19.9660    5.2814 Q=    0.4170 A=    0.0000 R=    0.0000 C=    0.0000
 XYZ=   20.3793   12.7087   24.0707 Q=   -0.8340 A=    0.0000 R=    0.0000 C=    0.0000
 XYZ=   21.1745   13.2141   24.2394 Q=    0.4170 A=    0.0000 R=    0.0000 C=    0.0000
 XYZ=   20.5402   12.2818   23.2292 Q=    0.4170 A=    0.0000 R=    0.0000 C=    0.0000
 XYZ=   14.2763   12.5129    5.0874 Q=   -0.8340 A=    0.0000 R=    0.0000 C=    0.0000
 XYZ=   14.5146   12.3917    4.1683 Q=    0.4170 A=    0.0000 R=    0.0000 C=    0.0000
 XYZ=   13.3708   12.2076    5.1429 Q=    0.4170 A=    0.0000 R=    0.0000 C=    0.0000
 XYZ=    6.3435   10.9767   10.5717 Q=   -0.8340 A=    0.0000 R=    0.0000 C=    0.0000
 XYZ=    6.1402   10.2614    9.9690 Q=    0.4170 A=    0.0000 R=    0.0000 C=    0.0000
 XYZ=    7.1818   11.3200   10.2626 Q=    0.4170 A=    0.0000 R=    0.0000 C=    0.0000
 XYZ=    6.3508   16.5951   28.1657 Q=   -0.8340 A=    0.0000 R=    0.0000 C=    0.0000
 XYZ=    7.2035   16.1736   28.2725 Q=    0.4170 A=    0.0000 R=    0.0000 C=    0.0000
 XYZ=    5.7271   15.8698   28.1319 Q=    0.4170 A=    0.0000 R=    0.0000 C=    0.0000
 XYZ=    7.7125   12.0209   15.9063 Q=   -0.8340 A=    0.0000 R=    0.0000 C=    0.0000
 XYZ=    7.0705   11.5242   16.4136 Q=    0.4170 A=    0.0000 R=    0.0000 C=    0.0000
 XYZ=    7.3054   12.1323   15.0472 Q=    0.4170 A=    0.0000 R=    0.0000 C=    0.0000
 XYZ=    9.7336   18.4482   15.7965 Q=   -0.8340 A=    0.0000 R=    0.0000 C=    0.0000
 XYZ=    9.8858   17.9968   16.6268 Q=    0.4170 A=    0.0000 R=    0.0000 C=    0.0000
 XYZ=    8.8863   18.8789   15.9093 Q=    0.4170 A=    0.0000 R=    0.0000 C=    0.0000
 XYZ=   19.1149   26.0325   13.5981 Q=   -0.8340 A=    0.0000 R=    0.0000 C=    0.0000
 XYZ=   18.5492   25.2906   13.3842 Q=    0.4170 A=    0.0000 R=    0.0000 C=    0.0000
 XYZ=   19.3393   26.4154   12.7500 Q=    0.4170 A=    0.0000 R=    0.0000 C=    0.0000
 XYZ=   15.6531   11.4304   26.1333 Q=   -0.8340 A=    0.0000 R=    0.0000 C=    0.0000
 XYZ=   15.8570   11.0174   26.9724 Q=    0.4170 A=    0.0000 R=    0.0000 C=    0.0000
 XYZ=   15.6132   12.3663   26.3298 Q=    0.4170 A=    0.0000 R=    0.0000 C=    0.0000
 XYZ=   13.1308   25.9045   23.4165 Q=   -0.8340 A=    0.0000 R=    0.0000 C=    0.0000
 XYZ=   14.0679   25.9746   23.5986 Q=    0.4170 A=    0.0000 R=    0.0000 C=    0.0000
 XYZ=   12.7244   26.5455   23.9998 Q=    0.4170 A=    0.0000 R=    0.0000 C=    0.0000
 XYZ=    6.0484   15.2936   23.4353 Q=   -0.8340 A=    0.0000 R=    0.0000 C=    0.0000
 XYZ=    6.3635   14.4440   23.7436 Q=    0.4170 A=    0.0000 R=    0.0000 C=    0.0000
 XYZ=    6.6376   15.9297   23.8408 Q=    0.4170 A=    0.0000 R=    0.0000 C=    0.0000
 XYZ=   11.2699    3.2481   17.7671 Q=   -0.8340 A=    0.0000 R=    0.0000 C=    0.0000
 XYZ=   10.9933    3.6191   16.9292 Q=    0.4170 A=    0.0000 R=    0.0000 C=    0.0000
 XYZ=   12.1490    3.6000   17.9069 Q=    0.4170 A=    0.0000 R=    0.0000 C=    0.0000
 XYZ=    9.3908    8.6128   27.2817 Q=   -0.8340 A=    0.0000 R=    0.0000 C=    0.0000
 XYZ=    9.7749    8.1726   26.5235 Q=    0.4170 A=    0.0000 R=    0.0000 C=    0.0000
 XYZ=   10.1390    8.8299   27.8378 Q=    0.4170 A=    0.0000 R=    0.0000 C=    0.0000
 XYZ=    6.0986   21.6742    6.8255 Q=   -0.8340 A=    0.0000 R=    0.0000 C=    0.0000
 XYZ=    6.2617   20.8392    7.2641 Q=    0.4170 A=    0.0000 R=    0.0000 C=    0.0000
 XYZ=    5.8672   22.2758    7.5331 Q=    0.4170 A=    0.0000 R=    0.0000 C=    0.0000
 XYZ=   12.8129   11.5507   15.7720 Q=   -0.8340 A=    0.0000 R=    0.0000 C=    0.0000
 XYZ=   12.7430   10.8322   15.1434 Q=    0.4170 A=    0.0000 R=    0.0000 C=    0.0000
 XYZ=   11.9065   11.7959   15.9579 Q=    0.4170 A=    0.0000 R=    0.0000 C=    0.0000
 XYZ=   16.1485    9.7491   15.1620 Q=   -0.8340 A=    0.0000 R=    0.0000 C=    0.0000
 XYZ=   16.5773   10.2385   14.4600 Q=    0.4170 A=    0.0000 R=    0.0000 C=    0.0000
 XYZ=   16.7020    8.9788   15.2903 Q=    0.4170 A=    0.0000 R=    0.0000 C=    0.0000
 XYZ=   11.5702   23.9998   17.1249 Q=   -0.8340 A=    0.0000 R=    0.0000 C=    0.0000
 XYZ=   12.0114   23.4969   17.8095 Q=    0.4170 A=    0.0000 R=    0.0000 C=    0.0000
 XYZ=   12.2818   24.3824   16.6117 Q=    0.4170 A=    0.0000 R=    0.0000 C=    0.0000
 XYZ=   23.3036   15.7318   19.7484 Q=   -0.8340 A=    0.0000 R=    0.0000 C=    0.0000
 XYZ=   22.8670   16.4915   19.3631 Q=    0.4170 A=    0.0000 R=    0.0000 C=    0.0000
 XYZ=   24.2376   15.9215   19.6603 Q=    0.4170 A=    0.0000 R=    0.0000 C=    0.0000
 XYZ=   14.0499   18.2976    4.2637 Q=   -0.8340 A=    0.0000 R=    0.0000 C=    0.0000
 XYZ=   13.6328   18.6302    3.4689 Q=    0.4170 A=    0.0000 R=    0.0000 C=    0.0000
 XYZ=   14.1934   17.3676    4.0883 Q=    0.4170 A=    0.0000 R=    0.0000 C=    0.0000
 XYZ=    2.0938   22.3989   15.9640 Q=   -0.8340 A=    0.0000 R=    0.0000 C=    0.0000
 XYZ=    1.6565   21.7958   16.5650 Q=    0.4170 A=    0.0000 R=    0.0000 C=    0.0000
 XYZ=    2.9520   22.5516   16.3594 Q=    0.4170 A=    0.0000 R=    0.0000 C=    0.0000
 XYZ=   10.6009    7.6506   24.7439 Q=   -0.8340 A=    0.0000 R=    0.0000 C=    0.0000
 XYZ=   10.5110    6.8169   24.2824 Q=    0.4170 A=    0.0000 R=    0.0000 C=    0.0000
 XYZ=   11.4566    7.5983   25.1695 Q=    0.4170 A=    0.0000 R=    0.0000 C=    0.0000
 XYZ=   23.2952    9.5482   25.0292 Q=   -0.8340 A=    0.0000 R=    0.0000 C=    0.0000
 XYZ=   22.8288   10.1839   24.4865 Q=    0.4170 A=    0.0000 R=    0.0000 C=    0.0000
 XYZ=   22.6713    8.8323   25.1500 Q=    0.4170 A=    0.0000 R=    0.0000 C=    0.0000
 XYZ=    4.3681   12.3085   24.3473 Q=   -0.8340 A=    0.0000 R=    0.0000 C=    0.0000
 XYZ=    4.4874   11.3600   24.3950 Q=    0.4170 A=    0.0000 R=    0.0000 C=    0.0000
 XYZ=    5.2076   12.6705   24.6311 Q=    0.4170 A=    0.0000 R=    0.0000 C=    0.0000
 XYZ=   16.8038   19.0602    3.9909 Q=   -0.8340 A=    0.0000 R=    0.0000 C=    0.0000
 XYZ=   16.0450   18.7494    4.4848 Q=    0.4170 A=    0.0000 R=    0.0000 C=    0.0000
 XYZ=   16.7531   20.0143    4.0483 Q=    0.4170 A=    0.0000 R=    0.0000 C=    0.0000
 XYZ=   16.5757    1.9649   16.9634 Q=   -0.8340 A=    0.0000 R=    0.0000 C=    0.0000
 XYZ=   15.9961    1.5541   17.6049 Q=    0.4170 A=    0.0000 R=    0.0000 C=    0.0000
 XYZ=   17.1018    2.5799   17.4745 Q=    0.4170 A=    0.0000 R=    0.0000 C=    0.0000
 XYZ=   17.1785   28.9772   19.0282 Q=   -0.8340 A=    0.0000 R=    0.0000 C=    0.0000
 XYZ=   17.7962   28.2667   19.2008 Q=    0.4170 A=    0.0000 R=    0.0000 C=    0.0000
 XYZ=   16.3252   28.6176   19.2707 Q=    0.4170 A=    0.0000 R=    0.0000 C=    0.0000
 XYZ=    7.9430   10.7983   26.6789 Q=   -0.8340 A=    0.0000 R=    0.0000 C=    0.0000
 XYZ=    8.3264   11.6416   26.9200 Q=    0.4170 A=    0.0000 R=    0.0000 C=    0.0000
 XYZ=    8.4951   10.1499   27.1159 Q=    0.4170 A=    0.0000 R=    0.0000 C=    0.0000
 XYZ=   25.8965   15.2841   14.6266 Q=   -0.8340 A=    0.0000 R=    0.0000 C=    0.0000
 XYZ=   25.9318   15.7905   13.8151 Q=    0.4170 A=    0.0000 R=    0.0000 C=    0.0000
 XYZ=   25.4003   14.4982   14.3977 Q=    0.4170 A=    0.0000 R=    0.0000 C=    0.0000
 XYZ=   13.7027   23.3233   18.9539 Q=   -0.8340 A=    0.0000 R=    0.0000 C=    0.0000
 XYZ=   13.6335   24.0233   19.6031 Q=    0.4170 A=    0.0000 R=    0.0000 C=    0.0000
 XYZ=   14.6422   23.2388   18.7914 Q=    0.4170 A=    0.0000 R=    0.0000 C=    0.0000
 XYZ=   30.0915   22.8011   17.2094 Q=   -0.8340 A=    0.0000 R=    0.0000 C=    0.0000
 XYZ=   30.5327   22.6935   16.3668 Q=    0.4170 A=    0.0000 R=    0.0000 C=    0.0000
 XYZ=   29.1602   22.8315   16.9905 Q=    0.4170 A=    0.0000 R=    0.0000 C=    0.0000
 XYZ=   11.7624   13.1912   28.5861 Q=   -0.8340 A=    0.0000 R=    0.0000 C=    0.0000
 XYZ=   11.7199   13.6726   27.7599 Q=    0.4170 A=    0.0000 R=    0.0000 C=    0.0000
 XYZ=   10.8572   12.9336   28.7606 Q=    0.4170 A=    0.0000 R=    0.0000 C=    0.0000
 XYZ=    5.2678   17.5274   17.3994 Q=   -0.8340 A=    0.0000 R=    0.0000 C=    0.0000
 XYZ=    5.7134   17.1056   18.1341 Q=    0.4170 A=    0.0000 R=    0.0000 C=    0.0000
 XYZ=    4.3363   17.4417   17.6026 Q=    0.4170 A=    0.0000 R=    0.0000 C=    0.0000
 XYZ=   31.9650   19.2645   15.5520 Q=   -0.8340 A=    0.0000 R=    0.0000 C=    0.0000
 XYZ=   32.4166   18.5384   15.1219 Q=    0.4170 A=    0.0000 R=    0.0000 C=    0.0000
 XYZ=   31.0385   19.1175   15.3615 Q=    0.4170 A=    0.0000 R=    0.0000 C=    0.0000
 XYZ=   19.5054   18.8766    5.3942 Q=   -0.8340 A=    0.0000 R=    0.0000 C=    0.0000
 XYZ=   19.2977   19.4383    4.6475 Q=    0.4170 A=    0.0000 R=    0.0000 C=    0.0000
 XYZ=   18.8013   18.2283    5.4101 Q=    0.4170 A=    0.0000 R=    0.0000 C=    0.0000
 XYZ=   22.5699    8.9346   17.6369 Q=   -0.8340 A=    0.0000 R=    0.0000 C=    0.0000
 XYZ=   22.4049    8.3146   18.3473 Q=    0.4170 A=    0.0000 R=    0.0000 C=    0.0000
 XYZ=   23.4374    8.6982   17.3087 Q=    0.4170 A=    0.0000 R=    0.0000 C=    0.0000
 XYZ=   12.1119    6.9300   21.7190 Q=   -0.8340 A=    0.0000 R=    0.0000 C=    0.0000
 XYZ=   11.7047    7.7879   21.8388 Q=    0.4170 A=    0.0000 R=    0.0000 C=    0.0000
 XYZ=   12.4069    6.9295   20.8084 Q=    0.4170 A=    0.0000 R=    0.0000 C=    0.0000
 XYZ=   26.6283   20.0404   16.2893 Q=   -0.8340 A=    0.0000 R=    0.0000 C=    0.0000
 XYZ=   27.1924   20.8080   16.3832 Q=    0.4170 A=    0.0000 R=    0.0000 C=    0.0000
 XYZ=   26.1322   20.2039   15.4871 Q=    0.4170 A=    0.0000 R=    0.0000 C=    0.0000
 XYZ=   15.6289   23.6459   22.2149 Q=   -0.8340 A=    0.0000 R=    0.0000 C=    0.0000
 XYZ=   16.2363   24.3835   22.1589 Q=    0.4170 A=    0.0000 R=    0.0000 C=    0.0000
 XYZ=   15.0161   23.8918   22.9079 Q=    0.4170 A=    0.0000 R=    0.0000 C=    0.0000
 XYZ=    6.5990    9.3283    8.2071 Q=   -0.8340 A=    0.0000 R=    0.0000 C=    0.0000
 XYZ=    7.0233    9.8954    7.5632 Q=    0.4170 A=    0.0000 R=    0.0000 C=    0.0000
 XYZ=    6.3895    8.5298    7.7225 Q=    0.4170 A=    0.0000 R=    0.0000 C=    0.0000
 XYZ=   17.4393   30.1662   16.2329 Q=   -0.8340 A=    0.0000 R=    0.0000 C=    0.0000
 XYZ=   18.1304   30.7777   16.4872 Q=    0.4170 A=    0.0000 R=    0.0000 C=    0.0000
 XYZ=   16.8462   30.1484   16.9839 Q=    0.4170 A=    0.0000 R=    0.0000 C=    0.0000
 XYZ=   22.2081   10.2525   27.5919 Q=   -0.8340 A=    0.0000 R=    0.0000 C=    0.0000
 XYZ=   22.4823    9.7137   26.8498 Q=    0.4170 A=    0.0000 R=    0.0000 C=    0.0000
 XYZ=   21.5387   10.8342   27.2318 Q=    0.4170 A=    0.0000 R=    0.0000 C=    0.0000
 XYZ=    5.1772   16.2261    9.3536 Q=   -0.8340 A=    0.0000 R=    0.0000 C=    0.0000
 XYZ=    5.3463   16.0308   10.2753 Q=    0.4170 A=    0.0000 R=    0.0000 C=    0.0000
 XYZ=    5.4526   15.4372    8.8867 Q=    0.4170 A=    0.0000 R=    0.0000 C=    0.0000
 XYZ=    6.3374   15.9014   19.5060 Q=   -0.8340 A=    0.0000 R=    0.0000 C=    0.0000
 XYZ=    5.8311   15.0891   19.5071 Q=    0.4170 A=    0.0000 R=    0.0000 C=    0.0000
 XYZ=    6.9451   15.8064   20.2395 Q=    0.4170 A=    0.0000 R=    0.0000 C=    0.0000
 XYZ=   14.3793   19.5181    9.4440 Q=   -0.8340 A=    0.0000 R=    0.0000 C=    0.0000
 XYZ=   14.3157   20.3419    8.9606 Q=    0.4170 A=    0.0000 R=    0.0000 C=    0.0000
 XYZ=   14.6215   19.7794   10.3324 Q=    0.4170 A=    0.0000 R=    0.0000 C=    0.0000
 XYZ=   30.1477   15.1650   18.5764 Q=   -0.8340 A=    0.0000 R=    0.0000 C=    0.0000
 XYZ=   30.4254   16.0723   18.4499 Q=    0.4170 A=    0.0000 R=    0.0000 C=    0.0000
 XYZ=   30.1192   14.7974   17.6930 Q=    0.4170 A=    0.0000 R=    0.0000 C=    0.0000
 XYZ=   21.4317    9.7059    5.2187 Q=   -0.8340 A=    0.0000 R=    0.0000 C=    0.0000
 XYZ=   20.6323   10.0917    4.8605 Q=    0.4170 A=    0.0000 R=    0.0000 C=    0.0000
 XYZ=   22.0007    9.5838    4.4587 Q=    0.4170 A=    0.0000 R=    0.0000 C=    0.0000
 XYZ=   19.7385   23.9897   28.2200 Q=   -0.8340 A=    0.0000 R=    0.0000 C=    0.0000
 XYZ=   19.7943   23.1697   27.7293 Q=    0.4170 A=    0.0000 R=    0.0000 C=    0.0000
 XYZ=   19.4578   24.6375   27.5737 Q=    0.4170 A=    0.0000 R=    0.0000 C=    0.0000
 XYZ=   16.2957   18.9666    7.4561 Q=   -0.8340 A=    0.0000 R=    0.0000 C=    0.0000
 XYZ=   16.6129   19.8595    7.3205 Q=    0.4170 A=    0.0000 R=    0.0000 C=    0.0000
 XYZ=   15.8470   18.9970    8.3011 Q=    0.4170 A=    0.0000 R=    0.0000 C=    0.0000
 XYZ=    5.8719   14.0129    7.9004 Q=   -0.8340 A=    0.0000 R=    0.0000 C=    0.0000
 XYZ=    5.9358   14.0353    6.9456 Q=    0.4170 A=    0.0000 R=    0.0000 C=    0.0000
 XYZ=    5.7299   13.0898    8.1098 Q=    0.4170 A=    0.0000 R=    0.0000 C=    0.0000
 XYZ=   21.0247   21.0443   22.3481 Q=   -0.8340 A=    0.0000 R=    0.0000 C=    0.0000
 XYZ=   21.9640   21.1020   22.5232 Q=    0.4170 A=    0.0000 R=    0.0000 C=    0.0000
 XYZ=   20.9630   20.9508   21.3975 Q=    0.4170 A=    0.0000 R=    0.0000 C=    0.0000
 XYZ=   24.9376    4.5536   21.0758 Q=   -0.8340 A=    0.0000 R=    0.0000 C=    0.0000
 XYZ=   24.2462    3.9347   21.3106 Q=    0.4170 A=    0.0000 R=    0.0000 C=    0.0000
 XYZ=   24.6436    4.9404   20.2511 Q=    0.4170 A=    0.0000 R=    0.0000 C=    0.0000
 XYZ=   24.2429   22.4653    8.3375 Q=   -0.8340 A=    0.0000 R=    0.0000 C=    0.0000
 XYZ=   24.5490   21.6248    7.9969 Q=    0.4170 A=    0.0000 R=    0.0000 C=    0.0000
 XYZ=   24.6758   23.1188    7.7882 Q=    0.4170 A=    0.0000 R=    0.0000 C=    0.0000
 XYZ=    7.6728   17.2154    6.1418 Q=   -0.8340 A=    0.0000 R=    0.0000 C=    0.0000
 XYZ=    6.8873   17.7220    5.9355 Q=    0.4170 A=    0.0000 R=    0.0000 C=    0.0000
 XYZ=    7.4822   16.8110    6.9882 Q=    0.4170 A=    0.0000 R=    0.0000 C=    0.0000
 XYZ=   18.3004   24.9503    6.1931 Q=   -0.8340 A=    0.0000 R=    0.0000 C=    0.0000
 XYZ=   18.0280   25.6583    5.6093 Q=    0.4170 A=    0.0000 R=    0.0000 C=    0.0000
 XYZ=   18.7136   25.3950    6.9332 Q=    0.4170 A=    0.0000 R=    0.0000 C=    0.0000
 XYZ=   30.4199   11.8939   18.6148 Q=   -0.8340 A=    0.0000 R=    0.0000 C=    0.0000
 XYZ=   29.8639   12.4909   18.1142 Q=    0.4170 A=    0.0000 R=    0.0000 C=    0.0000
 XYZ=   30.0386   11.8903   19.4928 Q=    0.4170 A=    0.0000 R=    0.0000 C=    0.0000
 XYZ=   10.5238   21.0330   17.2452 Q=   -0.8340 A=    0.0000 R=    0.0000 C=    0.0000
 XYZ=   10.0794   21.2257   16.4196 Q=    0.4170 A=    0.0000 R=    0.0000 C=    0.0000
 XYZ=   11.3080   21.5816   17.2294 Q=    0.4170 A=    0.0000 R=    0.0000 C=    0.0000
 XYZ=   30.8105   21.7107   14.6418 Q=   -0.8340 A=    0.0000 R=    0.0000 C=    0.0000
 XYZ=   31.6885   21.6241   14.2705 Q=    0.4170 A=    0.0000 R=    0.0000 C=    0.0000
 XYZ=   30.3668   20.8975   14.4007 Q=    0.4170 A=    0.0000 R=    0.0000 C=    0.0000
 XYZ=   22.6384   23.4063   11.8678 Q=   -0.8340 A=    0.0000 R=    0.0000 C=    0.0000
 XYZ=   22.9317   24.3173   11.8829 Q=    0.4170 A=    0.0000 R=    0.0000 C=    0.0000
 XYZ=   22.5517   23.1975   10.9376 Q=    0.4170 A=    0.0000 R=    0.0000 C=    0.0000
 XYZ=   12.6497   15.4949    8.5659 Q=   -0.8340 A=    0.0000 R=    0.0000 C=    0.0000
 XYZ=   12.9960   14.6530    8.2700 Q=    0.4170 A=    0.0000 R=    0.0000 C=    0.0000
 XYZ=   13.0461   16.1376    7.9777 Q=    0.4170 A=    0.0000 R=    0.0000 C=    0.0000
 XYZ=   12.7547   16.2448   30.0544 Q=   -0.8340 A=    0.0000 R=    0.0000 C=    0.0000
 XYZ=   12.4043   17.1236   30.1996 Q=    0.4170 A=    0.0000 R=    0.0000 C=    0.0000
[...]
 00442369,-0.00368911,-0.00224655,0.00175977,0.00138977,-0.00069563,0.0
 0005095,0.00002855,-0.00005515,0.00032135,-0.00003184,0.00017176,0.008
 65537,0.00153738,0.00067276,0.00044296,0.00025082,-0.00017645,0.000542
 77,0.00026736,0.00013023,-0.00017066,-0.00013436,0.00003868,-0.0001475
 3,-0.00005064,0.00012188,-0.00041669,-0.00019068,0.00019821,0.00007542
 ,0.00005381,-0.00008054,0.00027369,0.00012861,-0.00001457,0.00004620,0
 .00012079,0.00002199,-0.00003569,-0.00008996,0.00002188,-0.00000785,-0
 .00006385,-0.00004909,-0.00010444,-0.00010408,0.00017071,0.00006363,0.
 00002960,-0.00004564,-0.00000662,0.00003667,-0.00006156,0.00005696,0.0
 0020314,0.00014057,0.00000319,-0.00009728,-0.00010595,-0.00006683,-0.0
 0004710,-0.00009319,0.00036538,0.00020475,-0.00062384,-0.00002739,-0.0
 0006909,0.00018831,-0.00034562,0.00004899,0.00048649,0.00081386,-0.000
 75077,-0.00008457,-0.00057338,0.00034328,-0.00004464,-0.00023170,0.000
 29740,-0.00023786,-0.00000240,0.00004724,0.00017408,-0.00000303,-0.000
 01821,-0.00008094,-0.00001693,-0.00002142,-0.00005560,0.00012636,0.000
 07086,0.00006667,-0.00004792,-0.00001722,-0.00003232,-0.00000965,-0.00
 001797,-0.00004288,0.00016354,0.00000579,-0.00009488,-0.00006560,-0.00
 001706,0.00006023,-0.00009040,-0.00001062,0.00006646,0.00008288,0.0000
 4432,-0.00000940,-0.00004315,-0.00001228,0.00001251,-0.00005179,-0.000
 04291,0.00002479,-0.00051188,-0.00019562,0.00033771,0.00013171,0.00013
 052,-0.00018908,0.00028387,0.00001582,-0.00003195,0.00007034,-0.000043
 29,0.00004065,-0.00003551,0.00003100,-0.00001723,-0.00004754,0.0000211
 8,-0.00002357,0.00011236,0.00030014,-0.00008056,-0.00007797,-0.0001917
 9,-0.00002141,-0.00009056,-0.00019837,0.00012534,-0.00000537,-0.000010
 42,0.00010400,-0.00000795,-0.00000087,-0.00005189,0.00002847,0.0000060
 6,-0.00004083,-0.00081397,0.00075947,0.00027689,0.00054349,-0.00006815
 ,-0.00030545,0.00014574,-0.00014286,0.00002755,0.00000270,0.00005145,0
 .00014053,0.00000627,-0.00001764,-0.00003521,0.00002887,-0.00002491,-0
 .00009822,0.00008785,-0.00000698,0.00011554,-0.00000252,0.00000988,-0.
 00013853,-0.00001521,0.00000480,-0.00002014,0.00024085,-0.00009500,0.0
 0011516,-0.00011769,0.00000388,-0.00004737,-0.00005916,0.00005680,-0.0
 0012754,0.09328193,-0.18437428,0.45051008,-0.00074859,-0.00037156,0.00
 057128,-0.00050551,-0.00037757,0.00050685,0.00075119,0.00047913,0.0003
 4036,-0.00265483,-0.00184960,-0.00034853,0.00092244,0.00069138,-0.0006
 2360,-0.00000910,0.00000995,-0.00003156,-0.00002744,0.00004028,0.00000
 807,0.00316212,0.00039216,0.00061588,0.00034966,0.00021939,-0.00054906
 ,0.00038451,0.00025543,-0.00050625,-0.00019253,-0.00014383,0.00001300,
 0.00000045,0.00000567,0.00014966,-0.00002822,0.00012280,0.00010379,0.0
 0001295,-0.00004479,-0.00002790,0.00000029,-0.00004306,-0.00006310,-0.
 00000500,0.00012500,-0.00005994,0.00000412,-0.00010411,0.00006503,0.00
 001599,-0.00005687,0.00002037,0.00009430,-0.00002760,0.00005303,-0.000
 02324,0.00002249,-0.00002512,-0.00005202,-0.00000881,-0.00002869,-0.00
 012181,0.00018253,-0.00006349,0.00009674,-0.00009382,0.00001604,0.0000
 6228,-0.00007683,0.00003121,-0.00017021,0.00008990,-0.00040059,0.00013
 279,-0.00002670,0.00002248,0.00005041,0.00006761,0.00033881,0.00010603
 ,-0.00044779,-0.00020899,-0.00021162,0.00032091,0.00009833,-0.00000997
 ,0.00015676,0.00001240,0.00004576,0.00011477,0.00004678,-0.00004692,-0
 .00004592,-0.00003520,-0.00002064,-0.00004740,-0.00000892,0.00014225,0
 .00007371,-0.00002750,-0.00004681,-0.00001139,0.00004160,-0.00001523,-
 0.00001963,-0.00001093,0.00003616,-0.00003943,-0.00014281,0.00000430,-
 0.00000330,0.00005902,-0.00001767,0.00004080,0.00013692,0.00007185,0.0
 0004933,-0.00007520,-0.00003546,-0.00000833,0.00003446,-0.00004222,-0.
 00004654,0.00005157,0.00008824,-0.00009850,0.00008279,-0.00007457,0.00
 004271,-0.00004893,-0.00002948,0.00003027,-0.00004522,0.00004104,-0.00
 004893,-0.00004853,-0.00001549,0.00003341,0.00002051,-0.00003215,0.000
 02910,0.00003997,-0.00013400,0.00009946,-0.00008059,0.00006449,-0.0000
 8348,0.00005248,0.00004822,-0.00007197,0.00008232,0.00005280,0.0000350
 9,0.00004205,-0.00003200,-0.00001183,-0.00001356,-0.00001076,-0.000011
 11,-0.00002082,0.00007752,-0.00016523,0.00008936,-0.00003675,0.0000493
 4,-0.00004565,0.00000436,0.00005571,-0.00005051,-0.00004246,0.00011903
 ,-0.00002334,0.00001393,-0.00003908,0.00000404,-0.00000398,-0.00008388
 ,-0.00000808,0.00011516,-0.00002511,-0.00000743,-0.00005170,0.00002015
 ,-0.00001349,-0.00003256,0.00001243,0.00001433,0.00017789,-0.00011496,
 -0.00001735,-0.00010677,0.00002011,0.00000382,-0.00006565,0.00006960,-
 0.00002328,-0.14887501,0.06350216,-0.16811971,0.17116279,0.00008893,0.
 00013293,-0.00004612,0.00008128,0.00006695,-0.00009932,-0.00017888,-0.
 00018439,-0.00018087,0.00055659,0.00083899,0.00005027,-0.00026519,-0.0
 0036810,0.00021493,-0.00002158,0.00001403,0.00000774,0.00001748,0.0000
 4456,0.00001260,-0.00074073,-0.00101814,-0.00003810,-0.00004880,-0.000
 09758,0.00008185,-0.00008372,-0.00008644,0.00009450,0.00001546,0.00004
 554,0.00000122,-0.00005766,0.00010313,-0.00000378,0.00012180,-0.000082
 30,0.00002044,-0.00002912,0.00001344,-0.00000042,-0.00002635,0.0000571
 7,0.00000365,0.00007316,-0.00005463,-0.00001658,-0.00003428,0.00005067
 ,-0.00000326,-0.00005605,0.00002192,0.00002454,-0.00002416,-0.00004778
 ,-0.00001299,0.00000853,0.00001345,0.00000426,0.00000250,0.00003771,0.
 00000391,0.00026642,0.00019698,-0.00004159,-0.00014203,-0.00020299,0.0
 0003501,-0.00021521,-0.00003174,-0.00005913,0.00011951,-0.00031875,-0.
 00008753,-0.00001592,0.00011826,0.00002340,0.00007056,0.00026303,-0.00
 009991,-0.00072854,0.00016612,0.00021068,0.00037425,0.00016061,-0.0000
 1517,0.00030360,-0.00016942,0.00000557,0.00006194,-0.00005631,0.000016
 22,-0.00002066,0.00004041,-0.00000450,-0.00002441,0.00001441,-0.000002
 05,0.00001094,-0.00004098,-0.00000377,-0.00000478,0.00001481,0.0000026
 8,-0.00001873,0.00001182,0.00000599,-0.00001687,-0.00006119,0.00001333
 ,0.00000057,0.00003255,-0.00000488,0.00000297,0.00003866,-0.00000343,0
 .00001193,-0.00003292,-0.00000230,-0.00000057,0.00001556,0.00000064,-0
 .00001494,0.00002907,0.00000241,-0.00005924,-0.00006341,-0.00001421,0.
 00002963,0.00003262,-0.00000157,0.00001497,0.00002144,0.00001207,-0.00
 003244,-0.00001860,0.00000892,0.00002243,0.00000509,-0.00000465,0.0000
 2285,0.00001786,-0.00000849,0.00016881,-0.00006497,-0.00017472,-0.0001
 6737,-0.00001329,0.00014085,-0.00005503,0.00010576,0.00005556,0.000015
 65,-0.00005574,-0.00000420,-0.00000196,0.00001709,0.00000391,-0.000006
 42,0.00001438,0.00000156,-0.00003328,-0.00008123,-0.00009040,0.0000504
 2,0.00004191,0.00004397,0.00001279,0.00000685,0.00002723,0.00018772,-0
 .00002298,0.00001415,-0.00004359,-0.00000806,0.00000700,-0.00007913,0.
 00003393,-0.00001519,-0.00004643,-0.00004476,-0.00001458,0.00000842,0.
 00002037,0.00001476,0.00001066,0.00000968,0.00000162,-0.00010595,-0.00
 008918,-0.00000869,0.00005736,0.00004298,0.00000261,0.00004975,0.00003
 611,0.00002321,0.08546522,-0.06403934,0.15784626,-0.07958781,0.0652911
 9,0.00014439,0.00010006,0.00029116,-0.00007300,-0.00009222,0.00003171,
 -0.00004235,-0.00016343,0.00003356,-0.00001480,0.00005900,0.00034560,-
 0.00004574,0.00007657,-0.00008756,-0.00002295,0.00000744,0.00000264,-0
 .00008691,0.00003655,-0.00008561,0.00004660,-0.00010029,-0.00127512,-0
 .00000217,-0.00000643,-0.00019425,-0.00004340,0.00000096,-0.00026401,-
 0.00000637,-0.00000458,-0.00000930,0.00015300,0.00000674,0.00006200,0.
 00012966,0.00004582,-0.00002222,-0.00002499,-0.00002207,0.00002034,-0.
 00006409,-0.00001224,-0.00000976,-0.00003374,-0.00000888,-0.00004353,0
 .00002821,-0.00000298,0.00002397,0.00001278,0.00001121,0.00003836,0.00
 004244,0.00000767,-0.00003264,-0.00001747,0.00000057,0.00000610,-0.000
 01206,-0.00000400,0.00000910,-0.00005615,-0.00006040,-0.00012528,0.000
 00085,0.00001554,0.00008866,0.00004595,-0.00000570,0.00005847,-0.00061
 226,-0.00009915,0.00046984,0.00009825,0.00004146,-0.00021225,0.0004778
 0,-0.00012333,-0.00029746,-0.00027212,0.00016584,-0.00018129,0.0001524
 0,0.00002208,0.00014784,-0.00000001,-0.00001713,0.00011557,0.00001916,
 0.00001251,-0.00004424,-0.00001553,-0.00000266,0.00001403,-0.00000156,
 -0.00000484,0.00001831,0.00000201,-0.00000194,-0.00003849,0.00000254,0
 .00000353,0.00003095,-0.00000034,0.00000105,0.00001364,-0.00009990,-0.
 00002391,-0.00001728,0.00005718,0.00000722,-0.00001350,0.00005494,0.00
 003209,0.00004366,-0.00001120,-0.00000205,-0.00002677,0.00000762,0.000
 00385,0.00000877,0.00000816,0.00000048,0.00001202,0.00012050,0.0000034
 3,-0.00004680,-0.00004377,-0.00000989,0.00003115,-0.00005257,0.0000071
 1,-0.00000469,-0.00002018,0.00000226,-0.00003499,0.00001181,-0.0000029
 3,0.00001408,0.00001046,0.00000207,0.00002610,-0.00017500,-0.00023407,
 0.00002662,0.00010821,0.00013532,0.00005126,0.00012334,0.00015484,-0.0
 0006840,0.00001697,0.00000363,-0.00001754,-0.00000602,-0.00000028,0.00
 001324,-0.00001072,-0.00000144,0.00000616,0.00014182,-0.00014368,0.000
 02005,-0.00012490,0.00004448,0.00001801,-0.00001216,0.00002024,-0.0000
 1105,-0.00000677,0.00001653,-0.00007609,-0.00000232,-0.00000272,0.0000
 1938,-0.00002121,-0.00001673,0.00003417,-0.00000109,-0.00001252,-0.000
 03909,-0.00001176,0.00000711,0.00003716,-0.00000145,0.00000329,0.00001
 121,-0.00002350,-0.00001716,-0.00004819,0.00001065,0.00000998,0.000016
 04,-0.00000335,0.00001079,0.00002619,-0.22056504,0.15697423,-0.3916470
 1,0.20962096,-0.15543872,0.38246734,-0.00163644,-0.00079996,0.00149603
 ,-0.00123979,-0.00109197,0.00120400,0.00172187,0.00072865,0.00152778,-
 0.00991949,-0.00658339,0.00015440,0.00285876,0.00246701,-0.00179242,0.
 00000253,0.00006377,-0.00011246,-0.00031488,0.00005031,-0.00050100,0.0
 0466707,0.00212039,-0.00320966,0.00092530,0.00057411,-0.00154300,0.001
 00088,0.00073030,-0.00151989,-0.00047746,-0.00036546,-0.00001130,0.000
 18547,-0.00007861,0.00036747,-0.00031609,0.00026315,0.00027224,0.00006
 271,-0.00007368,-0.00008117,0.00013357,-0.00009784,-0.00016734,-0.0000
 7011,0.00031004,-0.00011985,0.00004506,-0.00027088,0.00015389,0.000082
 00,-0.00012965,0.00002017,0.00020463,-0.00009827,0.00015489,-0.0000322
 7,0.00005922,-0.00006769,-0.00012540,-0.00001024,-0.00008073,-0.000352
 68,0.00007260,-0.00004337,0.00017539,0.00004274,-0.00002334,0.00027373
 ,-0.00008827,0.00007906,-0.00066626,0.00013453,-0.00014490,0.00012640,
 -0.00001800,-0.00007190,0.00049897,-0.00001440,0.00016529,-0.00067085,
 -0.00065171,-0.00015071,0.00020636,0.00108897,0.00034136,0.00031973,0.
 00011116,-0.00007589,0.00005240,0.00029729,0.00012465,-0.00009445,-0.0
 0013377,-0.00009458,-0.00002921,-0.00010864,-0.00002541,0.00033333,0.0
 0019586,-0.00005685,-0.00010620,-0.00002938,0.00009268,-0.00001747,-0.
 00004979,-0.00003356,0.00000901,-0.00011249,-0.00031609,0.00004795,-0.
 00000568,0.00010561,0.00000287,0.00012263,0.00034472,0.00015311,0.0001
 2097,-0.00016924,-0.00007616,-0.00001786,0.00007665,-0.00008719,-0.000
 12093,0.00011915,0.00013368,-0.00044416,0.00031606,-0.00017246,0.00014
 650,-0.00015575,-0.00000922,0.00013194,-0.00017041,0.00006457,-0.00011
 579,-0.00010287,-0.00001535,0.00007436,0.00003830,-0.00005647,0.000079
 42,0.00009289,-0.00031516,0.00004791,0.00000248,0.00021968,-0.00003586
 ,-0.00002561,0.00015831,-0.00003956,0.00004546,0.00010769,0.00008931,0
 .00011584,-0.00006855,-0.00002645,-0.00003855,-0.00000978,-0.00002440,
 -0.00005464,-0.00037989,-0.00040987,0.00036859,-0.00000929,0.00048722,
 -0.00031889,0.00008453,0.00001597,-0.00010533,-0.00022781,0.00023954,-
 0.00002789,0.00005208,-0.00006402,-0.00000395,0.00007491,-0.00019750,-
 0.00002245,0.00024430,-0.00008431,-0.00001306,-0.00012181,0.00006241,-
 0.00004198,-0.00006566,0.00003166,0.00002987,0.00035465,-0.00036276,-0
 .00004907,-0.00021974,0.00007499,-0.00000057,-0.00014564,0.00022947,-0
 .00004871,-0.52498885,-0.05032017,0.07009443,-0.02304629,-0.00514288,0
 .00926717,0.54994920,0.00019853,0.00031662,0.00051568,-0.00017860,-0.0
 0028235,0.00008854,0.00010405,-0.00048105,-0.00017496,0.00005845,0.001
 45794,0.00160093,-0.00099082,-0.00065844,0.00014399,-0.00007227,0.0000
 3834,-0.00000081,-0.00023422,0.00045924,-0.00017813,-0.00076526,-0.004
 46946,-0.00006769,-0.00005914,-0.00013007,-0.00013707,-0.00004268,0.00
 000916,-0.00039522,-0.00004969,0.00001809,-0.00001511,-0.00002155,0.00
 013278,-0.00001717,0.00027506,0.00006779,0.00007664,-0.00004119,-0.000
 03089,0.00001388,-0.00011482,0.00003894,-0.00006760,0.00005937,-0.0000
 3120,-0.00004355,-0.00002670,0.00002819,0.00001607,-0.00004326,0.00000
 988,0.00004582,-0.00006728,-0.00015603,0.00001369,0.00003889,0.0000421
 6,0.00000187,-0.00002282,0.00008657,-0.00000600,0.00011732,0.00022043,
 -0.00011834,-0.00002539,-0.00018640,0.00007311,-0.00013011,-0.00007287
 ,0.00000524,0.00009133,-0.00020237,-0.00008832,-0.00000797,0.00005209,
 0.00001263,-0.00002604,0.00020066,-0.00004615,-0.00072080,0.00030403,0
 .00084384,0.00072182,0.00023925,-0.00053545,0.00036803,-0.00051158,-0.
 00031009,0.00010157,-0.00001723,0.00000219,-0.00005946,0.00003587,-0.0
 0001086,-0.00003152,-0.00000026,0.00000520,0.00005411,-0.00003163,-0.0
 0002342,-0.00001477,0.00001857,0.00002088,-0.00002431,0.00000922,0.000
 00916,-0.00001945,-0.00007789,0.00000081,0.00000352,0.00002912,-0.0000
 0436,0.00001094,0.00006151,0.00002218,0.00002298,-0.00002900,-0.000021
 47,-0.00000581,0.00001855,0.00000604,-0.00002089,0.00002250,0.00001343
 ,-0.00037341,-0.00033428,0.00003149,0.00010354,0.00014813,-0.00008406,
 0.00008809,0.00012889,0.00003939,-0.00004197,-0.00003108,0.00003135,0.
 00002890,0.00000674,-0.00001644,0.00003405,0.00002874,-0.00003221,0.00
 005496,-0.00005402,-0.00013390,-0.00006387,-0.00000384,0.00013085,-0.0
 0002172,0.00007400,0.00004684,0.00004072,-0.00008819,0.00000358,-0.000
 00985,0.00002667,0.00000348,-0.00001322,0.00002263,-0.00000127,-0.0005
 3502,0.00038330,-0.00076430,0.00067952,-0.00001182,0.00023561,-0.00007
 247,0.00002608,0.00020418,0.00015349,0.00003848,-0.00004829,-0.0000318
 7,-0.00002126,0.00001607,-0.00010450,-0.00001568,0.00000872,-0.0000698
 1,-0.00009753,-0.00001550,0.00000504,0.00005117,0.00000683,0.00001653,
 0.00001780,0.00000059,-0.00018982,-0.00020500,0.00000319,0.00009756,0.
 00010403,0.00001731,0.00013189,0.00008932,0.00001146,-0.07249244,-0.01
 788329,0.02745196,0.01700420,0.00363997,-0.00059487,0.05758164,0.01616
 348,0.00191903,0.00085519,0.00000810,0.00065107,0.00044632,-0.00104642
 ,-0.00176527,-0.00129531,-0.00040810,0.00823632,0.00630594,0.00283743,
 -0.00282682,-0.00240249,0.00140065,-0.00004738,-0.00005804,0.00006716,
 -0.00051880,0.00003183,-0.00035970,-0.00835002,-0.00200426,-0.00224162
 ,-0.00067543,-0.00038808,0.00050170,-0.00077982,-0.00041819,0.00010371
 ,0.00025904,0.00021541,-0.00006084,0.00003845,0.00004810,-0.00028439,0
 .00038686,0.00017322,-0.00016516,-0.00006866,-0.00003402,0.00007969,-0
 .00023327,-0.00012610,-0.00001208,-0.00000865,-0.00017234,0.00001907,0
 .00001065,0.00014229,-0.00006252,-0.00001902,0.00008201,0.00003005,0.0
 0007773,0.00012566,-0.00017398,-0.00005949,-0.00003751,0.00004365,0.00
 002616,-0.00004124,0.00006605,0.00006533,-0.00015201,-0.00007885,-0.00
 005081,0.00004480,0.00007055,-0.00003020,0.00005543,0.00004521,0.00007
 399,-0.00015783,0.00049703,-0.00006197,0.00004274,-0.00007750,-0.00000
 815,-0.00006539,-0.00041497,-0.00021160,0.00078731,0.00006318,0.000334
 36,-0.00074389,-0.00007044,0.00001500,-0.00018980,0.00022044,-0.000004
 56,-0.00009792,-0.00016688,0.00002033,0.00003853,0.00008567,0.00001850
 ,0.00004123,0.00005059,-0.00017994,-0.00009965,-0.00003702,0.00006377,
 0.00001975,0.00000124,0.00001113,0.00002409,0.00004192,-0.00010749,0.0
 0003880,0.00016727,0.00002224,0.00001022,-0.00007385,0.00006375,-0.000
 03358,-0.00016204,-0.00010285,-0.00006454,0.00005375,0.00005127,0.0000
 1174,-0.00003079,0.00006261,0.00006601,-0.00005343,0.00051455,0.000199
 83,-0.00033410,-0.00011833,-0.00016120,0.00020540,-0.00028613,-0.00000
 241,0.00000338,-0.00006046,0.00006631,-0.00000585,0.00002428,-0.000042
 38,0.00000385,0.00004579,-0.00004214,-0.00000398,0.00005469,-0.0002002
 9,0.00005680,-0.00003165,0.00014034,0.00000950,-0.00000898,0.00013470,
 -0.00009973,-0.00001449,0.00000312,-0.00010624,0.00001989,0.00000283,0
 .00005128,-0.00002196,-0.00000337,0.00003925,0.00063770,-0.00080563,-0
 .00003744,-0.00060799,0.00017808,0.00022901,-0.00007487,0.00009370,-0.
 00008412,0.00006212,-0.00009341,-0.00009737,-0.00001750,0.00002620,0.0
 0002391,-0.00004282,0.00006037,0.00008423,-0.00011536,0.00003597,-0.00
 009114,0.00002368,-0.00002724,0.00012854,0.00002280,-0.00001208,0.0000
 0718,-0.00026628,0.00019247,-0.00009245,0.00013410,-0.00003081,0.00004
 345,0.00006150,-0.00011211,0.00012396,0.12215420,0.02959291,-0.0572325
 7,-0.04329800,-0.00262630,0.00578067,-0.07725312,-0.02822074,0.0526070
 6\\-0.03554033,-0.03477290,0.06301058,-0.03400660,-0.01545203,-0.02988
 075,0.01232085,0.01274836,-0.03341356,0.06111982,0.03295449,0.01086215
 ,-0.02528591,-0.00828135,0.00253632,0.01054001,0.00002960,0.00646787,-
 0.00174813,0.00254426,-0.00236465,-0.01923238,-0.00958483,-0.00130822,
 0.02083599,0.01491261,-0.04784380,-0.00759392,-0.00264093,0.03058731,0
 .01986433,0.01630366,-0.00316712,-0.00891281,-0.00645175,-0.00194297,-
 0.01565667,0.00581487,-0.00745413,0.01002857,0.00831969,0.00446638,0.0
 0788751,-0.01526794,0.00581611,0.01126440,0.01162523,-0.00759175,-0.00
 286000,-0.00991776,-0.00535952,-0.00438718,0.00324430,0.01221759,-0.01
 090557,-0.00805736,-0.00438558,0.00542374,-0.01744557,0.00975905,0.000
 32814,0.02106664,0.00087083,-0.02037770,0.00544010,-0.02185695,-0.0176
 8338,0.00278617,0.00958114,0.01326759,-0.00394014,0.00869666,0.0032084
 8,0.00696831,0.00885931,-0.00488370,-0.00531035,-0.00997575,-0.0037612
 1,-0.01890521,-0.00212889,0.00309388,-0.01318607,-0.01856199,0.0009357
 6,0.01584984,0.00027251,-0.01118087,-0.00919068,0.01170295,-0.02065810
 ,0.00664120,0.00793209,0.01194167,-0.01334626,0.00580224,0.01535154,0.
 01633659,-0.00809642,0.00722432,-0.00627558,0.02939313,-0.00019949,-0.
 00447713,-0.02571852,-0.00060778,0.01081976,0.00313575,0.01541339,-0.0
 1141889,-0.00614823,-0.00768545,0.01020830,-0.01333274,0.00200518,0.00
 887201,0.01431542,0.01093009,0.00938623,0.00849168,-0.00017260,-0.0131
 9611,-0.01244047,-0.01051428,0.00112920,-0.00231263,-0.00889899,-0.016
 68174,-0.00467760,0.01794175,0.01322560,-0.00538911,-0.00078174,0.0003
 1257,0.01069793,0.00694013,0.00929654,-0.01795910,-0.00145398,-0.01935
 160,0.00252464,-0.00677393,0.00363053,0.01026499,-0.00141719,0.0132573
 4,-0.00778932,-0.00040274,0.00488595,0.01366414,0.00314116,-0.00454133
 ,-0.00094704,-0.01310118,-0.00637842,0.00275542,0.01803529,0.00018570,
 -0.01860739,0.00328717,0.00374040,0.01317254,-0.02472114,-0.00560230,-
 0.00196287,0.00941352,0.00536357,-0.00904752,0.00458162,-0.00500063,0.
 01351290,0.00441677,0.00159970,-0.00753356,0.00266476,0.01409398,0.002
 92653,0.00641978,-0.00981129,0.01117368,-0.00561335,0.00301751,-0.0158
 9177,0.00122214,0.00361322,0.01895366,0.01064706,-0.00627011,-0.004040
 74,-0.02152251,-0.00572175,-0.00770635,0.02320855,0.00998751,0.0018243
 2,-0.00379335,-0.00378544,0.00394661,-0.01027675,-0.00577997,0.0172932
 4,-0.00608030,0.00288575,-0.01086423,0.01292727,-0.00352187,-0.0079746
 5\\\@


     ON THE SURVIVAL OF THE FITTEST -
 "STRONG REPRESENTATIVES FROM EACH PAST ERA THRIVE TODAY,
 SUCH AS PROGRAMMING IN THE THIRTY YEAR OLD LANGUAGE KNOWN
 AS FORTRAN, AND EVEN IN THE ANCIENT SCRIPT KNOWN AS DIRECT
 MACHINE CODE. SOME PEOPLE MIGHT LOOK ON SUCH RELICS AS LIVING
 FOSSILS; OTHERS WOULD POINT OUT THAT EVEN A VERY OLD SPECIES
 MIGHT STILL BE FILLING A PARTICULAR ECOLOGICAL NICHE."
     -- ALAN KAY, SCI.AM. SEPTEMBER 1984
 Job cpu time:       1 days  6 hours 29 minutes 25.8 seconds.
 Elapsed time:       0 days  0 hours 57 minutes 42.9 seconds.
 File lengths (MBytes):  RWF=   3378 Int=      0 D2E=      0 Chk=     37 Scr=      1
 Normal termination of Gaussian 16 at Fri Sep 16 23:00:20 2022.
