 Entering Gaussian System, Link 0=/shared/gaussian/g16.b01/AVX2/g16/g16
 Input=snap002.S0.com
 Output=snap002.S0.log
 Initial command:
 /shared/gaussian/g16.b01/AVX2/g16/l1.exe "/scratch/giacomo/Gauscr/Gau-12438.inp" -scrdir="/scratch/giacomo/Gauscr/"
 Entering Link 1 = /shared/gaussian/g16.b01/AVX2/g16/l1.exe PID=     12439.
  
 Copyright (c) 1988-2017, Gaussian, Inc.  All Rights Reserved.
  
 This is part of the Gaussian(R) 16 program.  It is based on
 the Gaussian(R) 09 system (copyright 2009, Gaussian, Inc.),
 the Gaussian(R) 03 system (copyright 2003, Gaussian, Inc.),
 the Gaussian(R) 98 system (copyright 1998, Gaussian, Inc.),
 the Gaussian(R) 94 system (copyright 1995, Gaussian, Inc.),
 the Gaussian 92(TM) system (copyright 1992, Gaussian, Inc.),
 the Gaussian 90(TM) system (copyright 1990, Gaussian, Inc.),
 the Gaussian 88(TM) system (copyright 1988, Gaussian, Inc.),
 the Gaussian 86(TM) system (copyright 1986, Carnegie Mellon
 University), and the Gaussian 82(TM) system (copyright 1983,
 Carnegie Mellon University). Gaussian is a federally registered
 trademark of Gaussian, Inc.
  
 This software contains proprietary and confidential information,
 including trade secrets, belonging to Gaussian, Inc.
  
 This software is provided under written license and may be
 used, copied, transmitted, or stored only in accord with that
 written license.
  
 The following legend is applicable only to US Government
 contracts under FAR:
  
                    RESTRICTED RIGHTS LEGEND
  
 Use, reproduction and disclosure by the US Government is
 subject to restrictions as set forth in subparagraphs (a)
 and (c) of the Commercial Computer Software - Restricted
 Rights clause in FAR 52.227-19.
  
 Gaussian, Inc.
 340 Quinnipiac St., Bldg. 40, Wallingford CT 06492
  
  
 ---------------------------------------------------------------
 Warning -- This program may not be used in any manner that
 competes with the business of Gaussian, Inc. or will provide
 assistance to any competitor of Gaussian, Inc.  The licensee
 of this program is prohibited from giving any competitor of
 Gaussian, Inc. access to this program.  By using this program,
 the user acknowledges that Gaussian, Inc. is engaged in the
 business of creating and licensing software in the field of
 computational chemistry and represents and warrants to the
 licensee that it is not a competitor of Gaussian, Inc. and that
 it will not use this program in any manner prohibited above.
 ---------------------------------------------------------------
  

 Cite this work as:
 Gaussian 16, Revision B.01,
 M. J. Frisch, G. W. Trucks, H. B. Schlegel, G. E. Scuseria, 
 M. A. Robb, J. R. Cheeseman, G. Scalmani, V. Barone, 
 G. A. Petersson, H. Nakatsuji, X. Li, M. Caricato, A. V. Marenich, 
 J. Bloino, B. G. Janesko, R. Gomperts, B. Mennucci, H. P. Hratchian, 
 J. V. Ortiz, A. F. Izmaylov, J. L. Sonnenberg, D. Williams-Young, 
 F. Ding, F. Lipparini, F. Egidi, J. Goings, B. Peng, A. Petrone, 
 T. Henderson, D. Ranasinghe, V. G. Zakrzewski, J. Gao, N. Rega, 
 G. Zheng, W. Liang, M. Hada, M. Ehara, K. Toyota, R. Fukuda, 
 J. Hasegawa, M. Ishida, T. Nakajima, Y. Honda, O. Kitao, H. Nakai, 
 T. Vreven, K. Throssell, J. A. Montgomery, Jr., J. E. Peralta, 
 F. Ogliaro, M. J. Bearpark, J. J. Heyd, E. N. Brothers, K. N. Kudin, 
 V. N. Staroverov, T. A. Keith, R. Kobayashi, J. Normand, 
 K. Raghavachari, A. P. Rendell, J. C. Burant, S. S. Iyengar, 
 J. Tomasi, M. Cossi, J. M. Millam, M. Klene, C. Adamo, R. Cammi, 
 J. W. Ochterski, R. L. Martin, K. Morokuma, O. Farkas, 
 J. B. Foresman, and D. J. Fox, Gaussian, Inc., Wallingford CT, 2016.
 
 ******************************************
 Gaussian 16:  ES64L-G16RevB.01 20-Dec-2017
                16-Sep-2022 
 ******************************************
 %Nproc=32
 Will use up to   32 processors via shared memory.
 %Mem=120Gb
 %chk=temp.chk
 -------------------------------------------
 #p cam-b3lyp/6-31+G(d,p) nosymm charge Freq
 -------------------------------------------
 1/10=4,18=10,28=-2,30=1,38=1,125=101/1,3;
 2/12=2,15=1,17=6,18=5,40=1/2;
 3/5=1,6=6,7=111,11=2,25=1,30=1,71=2,74=-40,140=1/1,2,3;
 4//1;
 5/5=2,38=5,98=1/2;
 8/6=4,10=90,11=11/1;
 11/6=1,8=1,9=11,15=111,16=1,31=1/1,2,10;
 10/6=1,31=1/2;
 6/7=2,8=2,9=2,10=2,28=1/1;
 7/8=1,10=1,16=-2,25=1,30=1/1,2,3,16;
 1/10=4,18=10,28=-2,30=1/3;
 99//99;
 Leave Link    1 at Fri Sep 16 19:32:33 2022, MaxMem= 16106127360 cpu:               2.0 elap:               0.1
 (Enter /shared/gaussian/g16.b01/AVX2/g16/l101.exe)
 ------------------------------------------
 Calculation for S0 with freq for abs spect
 ------------------------------------------
 Symbolic Z-matrix:
 Charge =  0 Multiplicity = 1
 C                     17.64243   16.39785   15.69126 
 C                     16.07003   17.73995   16.95351 
 C                     15.33613   16.72005   17.40828 
 C                     15.70152   15.38826   17.01568 
 N                     16.86409   15.40707   16.14185 
 H                     15.88154   18.77825   17.12143 
 H                     14.51106   16.86087   18.13965 
 O                     15.09055   14.39041   17.20987 
 O                     18.65759   16.25297   15.02901 
 N                     17.20361   17.57834   16.15381 
 H                     17.9215   18.36133   15.99568 
 H                     16.96603   14.53286   15.69953 
 O                     19.4781   12.2852   17.99473 
 H                     18.71109   12.32417   17.42341 
 H                     19.57087   11.3569   18.20894 
 O                     14.12989   13.0775   14.93127 
 H                     14.40786   12.919    15.8334 
 H                     14.90926   12.89877   14.40508 
 O                     16.18465   18.52752   12.91193 
 H                     15.27518   18.24619   12.81224 
 H                     16.15167   19.21491   13.57724 
 O                     17.51161   12.33606   16.11613 
 H                     17.52407   11.93875   15.24537 
 H                     16.87228   11.81937   16.60655 
 O                     18.67698   19.45722   19.03072 
 H                     18.61023   19.71012   18.10995 
 H                     19.57265   19.68681   19.27832 
 O                     13.25085   18.13843   15.44981 
 H                     13.67264   18.14644   14.59059 
 H                     13.65887   17.40534   15.91061 
 O                     16.15009   12.99707   13.11484 
 H                     16.40705   12.10816   13.3599 
 H                     15.50288   12.87682   12.41993 
 O                     20.44738   14.165    15.69261 
 H                     20.27709   13.44612   15.08397 
 H                     19.89473   14.8809   15.37908 
 O                     17.71111   16.93627   19.71318 
 H                     18.38715   16.79394   20.37571 
 H                     17.9134   17.79628   19.3448 
 O                     12.31293   14.36621   16.94473 
 H                     13.14518   14.53888   17.38494 
 H                     12.32448   13.42514   16.77017 
 O                     21.16855   17.479    17.13762 
 H                     20.76046   16.87793   17.76085 
 H                     21.23099   16.97653   16.32531 
 O                     17.86409   16.80601   11.9853 
 H                     17.31193   17.40692   12.48557 
 H                     17.67198   17.0093   11.06988 
 O                     19.35714   19.74009   16.37156 
 H                     19.45272   20.39451   15.67959 
 H                     20.19747   19.282    16.38638 
 O                     20.43422   15.13186   18.6827 
 H                     19.89701   14.81188   19.40744 
 H                     20.34951   14.45992   18.00627 
 O                     15.82006   15.24746   20.9302 
 H                     15.56523   14.63879   20.2368 
 H                     16.36766   15.89737   20.48975 
 O                     20.64364   17.93616   13.76178 
 H                     20.48912   18.03047   12.82185 
 H                     19.9068   17.41136   14.07465 
 O                     14.40568   15.96084   14.15346 
 H                     14.5607   15.14779   14.63424 
 H                     14.59207   15.73941   13.24108 
 O                     16.29053   20.46817   14.91269 
 H                     16.16365   20.95411   15.72756 
 H                     16.40173   21.14465   14.24468 
 
 ITRead=  0  0  0  0  0  0  0  0  0  0  0  0  0  0  0  0  0  0  0  0
 ITRead=  0  0  0  0  0  0  0  0  0  0  0  0  0  0  0  0  0  0  0  0
 ITRead=  0  0  0  0  0  0  0  0  0  0  0  0  0  0  0  0  0  0  0  0
 ITRead=  0  0  0  0  0  0
 MicOpt= -1 -1 -1 -1 -1 -1 -1 -1 -1 -1 -1 -1 -1 -1 -1 -1 -1 -1 -1 -1
 MicOpt= -1 -1 -1 -1 -1 -1 -1 -1 -1 -1 -1 -1 -1 -1 -1 -1 -1 -1 -1 -1
 MicOpt= -1 -1 -1 -1 -1 -1 -1 -1 -1 -1 -1 -1 -1 -1 -1 -1 -1 -1 -1 -1
 MicOpt= -1 -1 -1 -1 -1 -1
 NAtoms=     66 NQM=       66 NQMF=       0 NMMI=      0 NMMIF=      0
                NMic=       0 NMicF=      0.
                    Isotopes and Nuclear Properties:
 (Nuclear quadrupole moments (NQMom) in fm**2, nuclear magnetic moments (NMagM)
  in nuclear magnetons)

  Atom         1           2           3           4           5           6           7           8           9          10
 IAtWgt=          12          12          12          12          14           1           1          16          16          14
 AtmWgt=  12.0000000  12.0000000  12.0000000  12.0000000  14.0030740   1.0078250   1.0078250  15.9949146  15.9949146  14.0030740
 NucSpn=           0           0           0           0           2           1           1           0           0           2
 AtZEff=  -0.0000000  -0.0000000  -0.0000000  -0.0000000  -0.0000000  -0.0000000  -0.0000000  -0.0000000  -0.0000000  -0.0000000
 NQMom=    0.0000000   0.0000000   0.0000000   0.0000000   2.0440000   0.0000000   0.0000000   0.0000000   0.0000000   2.0440000
 NMagM=    0.0000000   0.0000000   0.0000000   0.0000000   0.4037610   2.7928460   2.7928460   0.0000000   0.0000000   0.4037610
 AtZNuc=   6.0000000   6.0000000   6.0000000   6.0000000   7.0000000   1.0000000   1.0000000   8.0000000   8.0000000   7.0000000

  Atom        11          12          13          14          15          16          17          18          19          20
 IAtWgt=           1           1          16           1           1          16           1           1          16           1
 AtmWgt=   1.0078250   1.0078250  15.9949146   1.0078250   1.0078250  15.9949146   1.0078250   1.0078250  15.9949146   1.0078250
 NucSpn=           1           1           0           1           1           0           1           1           0           1
 AtZEff=  -0.0000000  -0.0000000  -0.0000000  -0.0000000  -0.0000000  -0.0000000  -0.0000000  -0.0000000  -0.0000000  -0.0000000
 NQMom=    0.0000000   0.0000000   0.0000000   0.0000000   0.0000000   0.0000000   0.0000000   0.0000000   0.0000000   0.0000000
 NMagM=    2.7928460   2.7928460   0.0000000   2.7928460   2.7928460   0.0000000   2.7928460   2.7928460   0.0000000   2.7928460
 AtZNuc=   1.0000000   1.0000000   8.0000000   1.0000000   1.0000000   8.0000000   1.0000000   1.0000000   8.0000000   1.0000000

  Atom        21          22          23          24          25          26          27          28          29          30
 IAtWgt=           1          16           1           1          16           1           1          16           1           1
 AtmWgt=   1.0078250  15.9949146   1.0078250   1.0078250  15.9949146   1.0078250   1.0078250  15.9949146   1.0078250   1.0078250
 NucSpn=           1           0           1           1           0           1           1           0           1           1
 AtZEff=  -0.0000000  -0.0000000  -0.0000000  -0.0000000  -0.0000000  -0.0000000  -0.0000000  -0.0000000  -0.0000000  -0.0000000
 NQMom=    0.0000000   0.0000000   0.0000000   0.0000000   0.0000000   0.0000000   0.0000000   0.0000000   0.0000000   0.0000000
 NMagM=    2.7928460   0.0000000   2.7928460   2.7928460   0.0000000   2.7928460   2.7928460   0.0000000   2.7928460   2.7928460
 AtZNuc=   1.0000000   8.0000000   1.0000000   1.0000000   8.0000000   1.0000000   1.0000000   8.0000000   1.0000000   1.0000000

  Atom        31          32          33          34          35          36          37          38          39          40
 IAtWgt=          16           1           1          16           1           1          16           1           1          16
 AtmWgt=  15.9949146   1.0078250   1.0078250  15.9949146   1.0078250   1.0078250  15.9949146   1.0078250   1.0078250  15.9949146
 NucSpn=           0           1           1           0           1           1           0           1           1           0
 AtZEff=  -0.0000000  -0.0000000  -0.0000000  -0.0000000  -0.0000000  -0.0000000  -0.0000000  -0.0000000  -0.0000000  -0.0000000
 NQMom=    0.0000000   0.0000000   0.0000000   0.0000000   0.0000000   0.0000000   0.0000000   0.0000000   0.0000000   0.0000000
 NMagM=    0.0000000   2.7928460   2.7928460   0.0000000   2.7928460   2.7928460   0.0000000   2.7928460   2.7928460   0.0000000
 AtZNuc=   8.0000000   1.0000000   1.0000000   8.0000000   1.0000000   1.0000000   8.0000000   1.0000000   1.0000000   8.0000000

  Atom        41          42          43          44          45          46          47          48          49          50
 IAtWgt=           1           1          16           1           1          16           1           1          16           1
 AtmWgt=   1.0078250   1.0078250  15.9949146   1.0078250   1.0078250  15.9949146   1.0078250   1.0078250  15.9949146   1.0078250
 NucSpn=           1           1           0           1           1           0           1           1           0           1
 AtZEff=  -0.0000000  -0.0000000  -0.0000000  -0.0000000  -0.0000000  -0.0000000  -0.0000000  -0.0000000  -0.0000000  -0.0000000
 NQMom=    0.0000000   0.0000000   0.0000000   0.0000000   0.0000000   0.0000000   0.0000000   0.0000000   0.0000000   0.0000000
 NMagM=    2.7928460   2.7928460   0.0000000   2.7928460   2.7928460   0.0000000   2.7928460   2.7928460   0.0000000   2.7928460
 AtZNuc=   1.0000000   1.0000000   8.0000000   1.0000000   1.0000000   8.0000000   1.0000000   1.0000000   8.0000000   1.0000000

  Atom        51          52          53          54          55          56          57          58          59          60
 IAtWgt=           1          16           1           1          16           1           1          16           1           1
 AtmWgt=   1.0078250  15.9949146   1.0078250   1.0078250  15.9949146   1.0078250   1.0078250  15.9949146   1.0078250   1.0078250
 NucSpn=           1           0           1           1           0           1           1           0           1           1
 AtZEff=  -0.0000000  -0.0000000  -0.0000000  -0.0000000  -0.0000000  -0.0000000  -0.0000000  -0.0000000  -0.0000000  -0.0000000
 NQMom=    0.0000000   0.0000000   0.0000000   0.0000000   0.0000000   0.0000000   0.0000000   0.0000000   0.0000000   0.0000000
 NMagM=    2.7928460   0.0000000   2.7928460   2.7928460   0.0000000   2.7928460   2.7928460   0.0000000   2.7928460   2.7928460
 AtZNuc=   1.0000000   8.0000000   1.0000000   1.0000000   8.0000000   1.0000000   1.0000000   8.0000000   1.0000000   1.0000000

  Atom        61          62          63          64          65          66
 IAtWgt=          16           1           1          16           1           1
 AtmWgt=  15.9949146   1.0078250   1.0078250  15.9949146   1.0078250   1.0078250
 NucSpn=           0           1           1           0           1           1
 AtZEff=  -0.0000000  -0.0000000  -0.0000000  -0.0000000  -0.0000000  -0.0000000
 NQMom=    0.0000000   0.0000000   0.0000000   0.0000000   0.0000000   0.0000000
 NMagM=    0.0000000   2.7928460   2.7928460   0.0000000   2.7928460   2.7928460
 AtZNuc=   8.0000000   1.0000000   1.0000000   8.0000000   1.0000000   1.0000000
 Background charge distribution read from input stream:
 Point Charges:
 XYZ=   25.4126   16.2537   11.6330 Q=   -0.8340 A=    0.0000 R=    0.0000 C=    0.0000
 XYZ=   24.9290   17.0324   11.9087 Q=    0.4170 A=    0.0000 R=    0.0000 C=    0.0000
 XYZ=   25.0589   16.0453   10.7683 Q=    0.4170 A=    0.0000 R=    0.0000 C=    0.0000
 XYZ=   28.4063    7.2212   13.1216 Q=   -0.8340 A=    0.0000 R=    0.0000 C=    0.0000
 XYZ=   27.5378    7.5424   13.3640 Q=    0.4170 A=    0.0000 R=    0.0000 C=    0.0000
 XYZ=   28.3145    6.2686   13.1072 Q=    0.4170 A=    0.0000 R=    0.0000 C=    0.0000
 XYZ=    8.4458    5.1477   11.2558 Q=   -0.8340 A=    0.0000 R=    0.0000 C=    0.0000
 XYZ=    7.8406    5.3630   10.5461 Q=    0.4170 A=    0.0000 R=    0.0000 C=    0.0000
 XYZ=    7.9078    4.6842   11.8976 Q=    0.4170 A=    0.0000 R=    0.0000 C=    0.0000
 XYZ=   27.1918   19.2435   12.9963 Q=   -0.8340 A=    0.0000 R=    0.0000 C=    0.0000
 XYZ=   27.5972   18.8893   12.2048 Q=    0.4170 A=    0.0000 R=    0.0000 C=    0.0000
 XYZ=   26.2918   19.4410   12.7373 Q=    0.4170 A=    0.0000 R=    0.0000 C=    0.0000
 XYZ=   19.3280   12.9199    9.1745 Q=   -0.8340 A=    0.0000 R=    0.0000 C=    0.0000
 XYZ=   18.9807   13.1752   10.0292 Q=    0.4170 A=    0.0000 R=    0.0000 C=    0.0000
 XYZ=   19.9996   12.2675    9.3735 Q=    0.4170 A=    0.0000 R=    0.0000 C=    0.0000
 XYZ=    4.0902   23.3738   13.6083 Q=   -0.8340 A=    0.0000 R=    0.0000 C=    0.0000
 XYZ=    4.9032   23.1029   14.0347 Q=    0.4170 A=    0.0000 R=    0.0000 C=    0.0000
 XYZ=    4.2760   24.2506   13.2722 Q=    0.4170 A=    0.0000 R=    0.0000 C=    0.0000
 XYZ=   24.4091    7.6370   23.8147 Q=   -0.8340 A=    0.0000 R=    0.0000 C=    0.0000
 XYZ=   24.7445    7.1373   24.5591 Q=    0.4170 A=    0.0000 R=    0.0000 C=    0.0000
 XYZ=   25.1179    7.6149   23.1719 Q=    0.4170 A=    0.0000 R=    0.0000 C=    0.0000
 XYZ=   27.5500   24.3337   17.0486 Q=   -0.8340 A=    0.0000 R=    0.0000 C=    0.0000
 XYZ=   27.6994   25.2344   17.3359 Q=    0.4170 A=    0.0000 R=    0.0000 C=    0.0000
 XYZ=   26.6136   24.2963   16.8535 Q=    0.4170 A=    0.0000 R=    0.0000 C=    0.0000
 XYZ=   20.6033   12.2405   22.0674 Q=   -0.8340 A=    0.0000 R=    0.0000 C=    0.0000
 XYZ=   20.7725   12.4386   21.1464 Q=    0.4170 A=    0.0000 R=    0.0000 C=    0.0000
 XYZ=   19.8270   11.6806   22.0537 Q=    0.4170 A=    0.0000 R=    0.0000 C=    0.0000
 XYZ=   21.5041   13.6601   26.5373 Q=   -0.8340 A=    0.0000 R=    0.0000 C=    0.0000
 XYZ=   22.3619   13.7379   26.1197 Q=    0.4170 A=    0.0000 R=    0.0000 C=    0.0000
 XYZ=   20.9062   13.4501   25.8199 Q=    0.4170 A=    0.0000 R=    0.0000 C=    0.0000
 XYZ=   27.0131   24.2568   20.6621 Q=   -0.8340 A=    0.0000 R=    0.0000 C=    0.0000
 XYZ=   27.1307   25.1693   20.9261 Q=    0.4170 A=    0.0000 R=    0.0000 C=    0.0000
 XYZ=   26.1257   24.2228   20.3048 Q=    0.4170 A=    0.0000 R=    0.0000 C=    0.0000
 XYZ=    2.7090   20.0985   17.0886 Q=   -0.8340 A=    0.0000 R=    0.0000 C=    0.0000
 XYZ=    3.1346   20.4444   16.3041 Q=    0.4170 A=    0.0000 R=    0.0000 C=    0.0000
 XYZ=    2.6312   20.8534   17.6720 Q=    0.4170 A=    0.0000 R=    0.0000 C=    0.0000
 XYZ=   14.4735   18.1215   24.6296 Q=   -0.8340 A=    0.0000 R=    0.0000 C=    0.0000
 XYZ=   14.1196   17.3019   24.9749 Q=    0.4170 A=    0.0000 R=    0.0000 C=    0.0000
 XYZ=   14.8513   18.5599   25.3920 Q=    0.4170 A=    0.0000 R=    0.0000 C=    0.0000
 XYZ=   26.9677   14.8079   13.2482 Q=   -0.8340 A=    0.0000 R=    0.0000 C=    0.0000
 XYZ=   26.4663   15.3241   12.6170 Q=    0.4170 A=    0.0000 R=    0.0000 C=    0.0000
 XYZ=   27.8779   15.0631   13.0978 Q=    0.4170 A=    0.0000 R=    0.0000 C=    0.0000
 XYZ=   11.5757   12.8666   13.3790 Q=   -0.8340 A=    0.0000 R=    0.0000 C=    0.0000
 XYZ=   11.4324   13.7996   13.2203 Q=    0.4170 A=    0.0000 R=    0.0000 C=    0.0000
 XYZ=   12.3592   12.8341   13.9279 Q=    0.4170 A=    0.0000 R=    0.0000 C=    0.0000
 XYZ=    9.5770    8.9176   13.7173 Q=   -0.8340 A=    0.0000 R=    0.0000 C=    0.0000
 XYZ=    9.6035    9.6986   14.2701 Q=    0.4170 A=    0.0000 R=    0.0000 C=    0.0000
 XYZ=    9.0509    8.2903   14.2132 Q=    0.4170 A=    0.0000 R=    0.0000 C=    0.0000
 XYZ=   25.1628   12.4037    5.3468 Q=   -0.8340 A=    0.0000 R=    0.0000 C=    0.0000
 XYZ=   24.9165   13.3215    5.2323 Q=    0.4170 A=    0.0000 R=    0.0000 C=    0.0000
 XYZ=   25.5254   12.1450    4.4996 Q=    0.4170 A=    0.0000 R=    0.0000 C=    0.0000
 XYZ=   17.8981    8.8612   17.2241 Q=   -0.8340 A=    0.0000 R=    0.0000 C=    0.0000
 XYZ=   18.3861    8.3272   17.8510 Q=    0.4170 A=    0.0000 R=    0.0000 C=    0.0000
 XYZ=   16.9834    8.6136   17.3588 Q=    0.4170 A=    0.0000 R=    0.0000 C=    0.0000
 XYZ=   13.4236    7.3677   25.7187 Q=   -0.8340 A=    0.0000 R=    0.0000 C=    0.0000
 XYZ=   12.6348    7.1239   26.2029 Q=    0.4170 A=    0.0000 R=    0.0000 C=    0.0000
 XYZ=   14.1104    6.8082   26.0813 Q=    0.4170 A=    0.0000 R=    0.0000 C=    0.0000
 XYZ=   16.0544   24.5319   11.1306 Q=   -0.8340 A=    0.0000 R=    0.0000 C=    0.0000
 XYZ=   16.0519   25.4303   10.8003 Q=    0.4170 A=    0.0000 R=    0.0000 C=    0.0000
 XYZ=   15.5760   24.0318   10.4694 Q=    0.4170 A=    0.0000 R=    0.0000 C=    0.0000
 XYZ=    6.3398    7.6565   14.4408 Q=   -0.8340 A=    0.0000 R=    0.0000 C=    0.0000
 XYZ=    7.0127    7.4163   15.0778 Q=    0.4170 A=    0.0000 R=    0.0000 C=    0.0000
 XYZ=    5.7172    6.9298   14.4639 Q=    0.4170 A=    0.0000 R=    0.0000 C=    0.0000
 XYZ=   18.7143   10.4431   22.2778 Q=   -0.8340 A=    0.0000 R=    0.0000 C=    0.0000
 XYZ=   18.3385    9.8177   21.6582 Q=    0.4170 A=    0.0000 R=    0.0000 C=    0.0000
 XYZ=   17.9787   10.9998   22.5329 Q=    0.4170 A=    0.0000 R=    0.0000 C=    0.0000
 XYZ=   15.9041   14.0242    8.8870 Q=   -0.8340 A=    0.0000 R=    0.0000 C=    0.0000
 XYZ=   16.5779   13.3872    8.6492 Q=    0.4170 A=    0.0000 R=    0.0000 C=    0.0000
 XYZ=   15.0931   13.5165    8.9149 Q=    0.4170 A=    0.0000 R=    0.0000 C=    0.0000
 XYZ=   15.2023   10.0346   10.0994 Q=   -0.8340 A=    0.0000 R=    0.0000 C=    0.0000
 XYZ=   15.3559   10.5664    9.3185 Q=    0.4170 A=    0.0000 R=    0.0000 C=    0.0000
 XYZ=   14.6036   10.5579   10.6323 Q=    0.4170 A=    0.0000 R=    0.0000 C=    0.0000
 XYZ=   13.8071   25.4467   19.7965 Q=   -0.8340 A=    0.0000 R=    0.0000 C=    0.0000
 XYZ=   12.9482   25.0831   19.5816 Q=    0.4170 A=    0.0000 R=    0.0000 C=    0.0000
 XYZ=   14.2516   24.7463   20.2741 Q=    0.4170 A=    0.0000 R=    0.0000 C=    0.0000
 XYZ=   16.2416   21.0706    7.2384 Q=   -0.8340 A=    0.0000 R=    0.0000 C=    0.0000
 XYZ=   16.5665   20.3633    7.7955 Q=    0.4170 A=    0.0000 R=    0.0000 C=    0.0000
 XYZ=   15.3256   20.8459    7.0751 Q=    0.4170 A=    0.0000 R=    0.0000 C=    0.0000
 XYZ=   12.8890   22.9454   16.5603 Q=   -0.8340 A=    0.0000 R=    0.0000 C=    0.0000
 XYZ=   12.8541   23.8000   16.1305 Q=    0.4170 A=    0.0000 R=    0.0000 C=    0.0000
 XYZ=   13.8077   22.8378   16.8064 Q=    0.4170 A=    0.0000 R=    0.0000 C=    0.0000
 XYZ=   13.7670   15.2492   25.1800 Q=   -0.8340 A=    0.0000 R=    0.0000 C=    0.0000
 XYZ=   14.0040   14.9384   26.0538 Q=    0.4170 A=    0.0000 R=    0.0000 C=    0.0000
 XYZ=   12.8651   14.9532   25.0565 Q=    0.4170 A=    0.0000 R=    0.0000 C=    0.0000
 XYZ=   27.0050   18.3745   18.8253 Q=   -0.8340 A=    0.0000 R=    0.0000 C=    0.0000
 XYZ=   26.1669   18.3365   18.3646 Q=    0.4170 A=    0.0000 R=    0.0000 C=    0.0000
 XYZ=   27.2620   19.2955   18.7805 Q=    0.4170 A=    0.0000 R=    0.0000 C=    0.0000
 XYZ=   22.6845   12.5390   20.1863 Q=   -0.8340 A=    0.0000 R=    0.0000 C=    0.0000
 XYZ=   22.7872   11.7181   20.6679 Q=    0.4170 A=    0.0000 R=    0.0000 C=    0.0000
 XYZ=   22.4878   12.2680   19.2896 Q=    0.4170 A=    0.0000 R=    0.0000 C=    0.0000
 XYZ=   26.4882   11.2322   16.6757 Q=   -0.8340 A=    0.0000 R=    0.0000 C=    0.0000
 XYZ=   27.2006   10.9678   16.0936 Q=    0.4170 A=    0.0000 R=    0.0000 C=    0.0000
 XYZ=   26.8556   11.9473   17.1952 Q=    0.4170 A=    0.0000 R=    0.0000 C=    0.0000
 XYZ=   12.2075   26.7179   24.0310 Q=   -0.8340 A=    0.0000 R=    0.0000 C=    0.0000
 XYZ=   11.7914   26.0954   23.4348 Q=    0.4170 A=    0.0000 R=    0.0000 C=    0.0000
 XYZ=   13.0640   26.3342   24.2191 Q=    0.4170 A=    0.0000 R=    0.0000 C=    0.0000
 XYZ=   11.7314   20.6867   20.6272 Q=   -0.8340 A=    0.0000 R=    0.0000 C=    0.0000
 XYZ=   11.7743   20.2300   19.7870 Q=    0.4170 A=    0.0000 R=    0.0000 C=    0.0000
 XYZ=   11.9704   21.5904   20.4216 Q=    0.4170 A=    0.0000 R=    0.0000 C=    0.0000
 XYZ=   22.8234   28.2310   10.5166 Q=   -0.8340 A=    0.0000 R=    0.0000 C=    0.0000
 XYZ=   22.0239   27.8764   10.9057 Q=    0.4170 A=    0.0000 R=    0.0000 C=    0.0000
 XYZ=   23.2596   27.4716   10.1303 Q=    0.4170 A=    0.0000 R=    0.0000 C=    0.0000
 XYZ=   10.5648   21.2760   27.3675 Q=   -0.8340 A=    0.0000 R=    0.0000 C=    0.0000
 XYZ=   11.3103   20.8859   26.9112 Q=    0.4170 A=    0.0000 R=    0.0000 C=    0.0000
 XYZ=    9.8978   20.5894   27.3682 Q=    0.4170 A=    0.0000 R=    0.0000 C=    0.0000
 XYZ=   28.2396   10.4431   14.6107 Q=   -0.8340 A=    0.0000 R=    0.0000 C=    0.0000
 XYZ=   28.1958   11.1263   13.9417 Q=    0.4170 A=    0.0000 R=    0.0000 C=    0.0000
 XYZ=   27.5422    9.8313   14.3750 Q=    0.4170 A=    0.0000 R=    0.0000 C=    0.0000
 XYZ=   16.6957   15.9307   31.1121 Q=   -0.8340 A=    0.0000 R=    0.0000 C=    0.0000
 XYZ=   16.2541   16.1682   31.9275 Q=    0.4170 A=    0.0000 R=    0.0000 C=    0.0000
 XYZ=   16.1806   16.3573   30.4272 Q=    0.4170 A=    0.0000 R=    0.0000 C=    0.0000
 XYZ=    3.5226   15.7991   10.4188 Q=   -0.8340 A=    0.0000 R=    0.0000 C=    0.0000
 XYZ=    4.0823   15.0290   10.3193 Q=    0.4170 A=    0.0000 R=    0.0000 C=    0.0000
 XYZ=    2.7620   15.6158    9.8672 Q=    0.4170 A=    0.0000 R=    0.0000 C=    0.0000
 XYZ=    6.5270   15.3178   13.6056 Q=   -0.8340 A=    0.0000 R=    0.0000 C=    0.0000
 XYZ=    5.5825   15.1622   13.6146 Q=    0.4170 A=    0.0000 R=    0.0000 C=    0.0000
 XYZ=    6.6146   16.2516   13.4146 Q=    0.4170 A=    0.0000 R=    0.0000 C=    0.0000
 XYZ=   18.1378   27.9209   19.7394 Q=   -0.8340 A=    0.0000 R=    0.0000 C=    0.0000
 XYZ=   17.8202   27.2856   19.0977 Q=    0.4170 A=    0.0000 R=    0.0000 C=    0.0000
 XYZ=   18.7347   28.4830   19.2455 Q=    0.4170 A=    0.0000 R=    0.0000 C=    0.0000
 XYZ=   12.9571   27.9306    6.8392 Q=   -0.8340 A=    0.0000 R=    0.0000 C=    0.0000
 XYZ=   12.3624   27.4830    7.4411 Q=    0.4170 A=    0.0000 R=    0.0000 C=    0.0000
 XYZ=   13.1707   27.2717    6.1786 Q=    0.4170 A=    0.0000 R=    0.0000 C=    0.0000
 XYZ=   16.9135   12.5835   22.2842 Q=   -0.8340 A=    0.0000 R=    0.0000 C=    0.0000
 XYZ=   16.7018   12.9402   23.1469 Q=    0.4170 A=    0.0000 R=    0.0000 C=    0.0000
 XYZ=   16.1655   12.8211   21.7362 Q=    0.4170 A=    0.0000 R=    0.0000 C=    0.0000
 XYZ=   23.1400   18.8350   18.3685 Q=   -0.8340 A=    0.0000 R=    0.0000 C=    0.0000
 XYZ=   22.2938   18.6680   17.9533 Q=    0.4170 A=    0.0000 R=    0.0000 C=    0.0000
 XYZ=   23.6367   18.0279   18.2340 Q=    0.4170 A=    0.0000 R=    0.0000 C=    0.0000
 XYZ=    9.0046   15.1425   28.7978 Q=   -0.8340 A=    0.0000 R=    0.0000 C=    0.0000
 XYZ=    9.7613   15.6913   28.5918 Q=    0.4170 A=    0.0000 R=    0.0000 C=    0.0000
 XYZ=    8.8652   14.6198   28.0082 Q=    0.4170 A=    0.0000 R=    0.0000 C=    0.0000
 XYZ=   27.1606   13.7733    6.7113 Q=   -0.8340 A=    0.0000 R=    0.0000 C=    0.0000
 XYZ=   26.7096   13.0402    6.2924 Q=    0.4170 A=    0.0000 R=    0.0000 C=    0.0000
 XYZ=   27.0241   14.5106    6.1163 Q=    0.4170 A=    0.0000 R=    0.0000 C=    0.0000
 XYZ=    5.1037   10.3083   14.1394 Q=   -0.8340 A=    0.0000 R=    0.0000 C=    0.0000
 XYZ=    5.3391    9.4255   13.8538 Q=    0.4170 A=    0.0000 R=    0.0000 C=    0.0000
 XYZ=    4.1517   10.3448   14.0462 Q=    0.4170 A=    0.0000 R=    0.0000 C=    0.0000
 XYZ=   20.5328   19.2686   11.2276 Q=   -0.8340 A=    0.0000 R=    0.0000 C=    0.0000
 XYZ=   21.2441   18.7121   10.9104 Q=    0.4170 A=    0.0000 R=    0.0000 C=    0.0000
 XYZ=   20.0874   19.5645   10.4337 Q=    0.4170 A=    0.0000 R=    0.0000 C=    0.0000
 XYZ=    4.5006   18.7101   19.5816 Q=   -0.8340 A=    0.0000 R=    0.0000 C=    0.0000
 XYZ=    3.7278   18.3880   19.1177 Q=    0.4170 A=    0.0000 R=    0.0000 C=    0.0000
 XYZ=    5.2362   18.4703   19.0179 Q=    0.4170 A=    0.0000 R=    0.0000 C=    0.0000
 XYZ=   10.6281   26.3509   16.9430 Q=   -0.8340 A=    0.0000 R=    0.0000 C=    0.0000
 XYZ=   10.7134   27.1389   17.4797 Q=    0.4170 A=    0.0000 R=    0.0000 C=    0.0000
 XYZ=   11.4936   26.2322   16.5518 Q=    0.4170 A=    0.0000 R=    0.0000 C=    0.0000
 XYZ=   15.2878   27.7375   23.4592 Q=   -0.8340 A=    0.0000 R=    0.0000 C=    0.0000
 XYZ=   16.1178   27.9757   23.0462 Q=    0.4170 A=    0.0000 R=    0.0000 C=    0.0000
 XYZ=   14.6791   27.6275   22.7288 Q=    0.4170 A=    0.0000 R=    0.0000 C=    0.0000
 XYZ=    7.3857    6.1853   23.5423 Q=   -0.8340 A=    0.0000 R=    0.0000 C=    0.0000
 XYZ=    6.7998    6.9343   23.4334 Q=    0.4170 A=    0.0000 R=    0.0000 C=    0.0000
 XYZ=    7.9251    6.1855   22.7515 Q=    0.4170 A=    0.0000 R=    0.0000 C=    0.0000
 XYZ=   12.6426   29.6561   23.6762 Q=   -0.8340 A=    0.0000 R=    0.0000 C=    0.0000
 XYZ=   11.7474   29.9444   23.4978 Q=    0.4170 A=    0.0000 R=    0.0000 C=    0.0000
 XYZ=   12.5689   28.7105   23.8056 Q=    0.4170 A=    0.0000 R=    0.0000 C=    0.0000
 XYZ=    6.1009   22.3533   17.7647 Q=   -0.8340 A=    0.0000 R=    0.0000 C=    0.0000
 XYZ=    6.8565   22.7532   18.1953 Q=    0.4170 A=    0.0000 R=    0.0000 C=    0.0000
 XYZ=    5.6405   21.8932   18.4665 Q=    0.4170 A=    0.0000 R=    0.0000 C=    0.0000
 XYZ=   18.2413   27.3863    9.6070 Q=   -0.8340 A=    0.0000 R=    0.0000 C=    0.0000
 XYZ=   17.4143   27.6686    9.9975 Q=    0.4170 A=    0.0000 R=    0.0000 C=    0.0000
 XYZ=   18.3302   27.9228    8.8193 Q=    0.4170 A=    0.0000 R=    0.0000 C=    0.0000
 XYZ=   11.0738    8.7200    8.8124 Q=   -0.8340 A=    0.0000 R=    0.0000 C=    0.0000
 XYZ=   10.1608    8.4671    8.9488 Q=    0.4170 A=    0.0000 R=    0.0000 C=    0.0000
 XYZ=   11.3655    9.0365    9.6674 Q=    0.4170 A=    0.0000 R=    0.0000 C=    0.0000
 XYZ=   14.3562   11.9814    6.2664 Q=   -0.8340 A=    0.0000 R=    0.0000 C=    0.0000
 XYZ=   14.8778   11.8967    5.4683 Q=    0.4170 A=    0.0000 R=    0.0000 C=    0.0000
 XYZ=   13.6921   12.6361    6.0508 Q=    0.4170 A=    0.0000 R=    0.0000 C=    0.0000
 XYZ=   28.0852   21.0777   18.6726 Q=   -0.8340 A=    0.0000 R=    0.0000 C=    0.0000
 XYZ=   27.1689   21.1598   18.4083 Q=    0.4170 A=    0.0000 R=    0.0000 C=    0.0000
 XYZ=   28.5273   20.7263   17.8997 Q=    0.4170 A=    0.0000 R=    0.0000 C=    0.0000
 XYZ=   18.4485   14.1399   11.7462 Q=   -0.8340 A=    0.0000 R=    0.0000 C=    0.0000
 XYZ=   17.5315   13.8663   11.7680 Q=    0.4170 A=    0.0000 R=    0.0000 C=    0.0000
 XYZ=   18.4238   15.0774   11.9379 Q=    0.4170 A=    0.0000 R=    0.0000 C=    0.0000
 XYZ=   10.0912   16.9901   19.5068 Q=   -0.8340 A=    0.0000 R=    0.0000 C=    0.0000
 XYZ=   10.4817   17.7897   19.1542 Q=    0.4170 A=    0.0000 R=    0.0000 C=    0.0000
 XYZ=    9.8503   16.4796   18.7337 Q=    0.4170 A=    0.0000 R=    0.0000 C=    0.0000
 XYZ=   19.4139   24.7540    7.1156 Q=   -0.8340 A=    0.0000 R=    0.0000 C=    0.0000
 XYZ=   19.4013   23.8115    7.2818 Q=    0.4170 A=    0.0000 R=    0.0000 C=    0.0000
 XYZ=   20.2625   25.0452    7.4494 Q=    0.4170 A=    0.0000 R=    0.0000 C=    0.0000
 XYZ=    9.2412   17.3211   14.3105 Q=   -0.8340 A=    0.0000 R=    0.0000 C=    0.0000
 XYZ=    8.7739   17.1407   15.1262 Q=    0.4170 A=    0.0000 R=    0.0000 C=    0.0000
 XYZ=   10.1023   16.9218   14.4338 Q=    0.4170 A=    0.0000 R=    0.0000 C=    0.0000
 XYZ=   19.7374   22.6492   19.8944 Q=   -0.8340 A=    0.0000 R=    0.0000 C=    0.0000
 XYZ=   19.6317   22.5430   20.8398 Q=    0.4170 A=    0.0000 R=    0.0000 C=    0.0000
 XYZ=   20.5810   22.2409   19.6999 Q=    0.4170 A=    0.0000 R=    0.0000 C=    0.0000
 XYZ=    8.0820   14.2272   15.6490 Q=   -0.8340 A=    0.0000 R=    0.0000 C=    0.0000
 XYZ=    7.2068   13.8412   15.6140 Q=    0.4170 A=    0.0000 R=    0.0000 C=    0.0000
 XYZ=    8.0017   15.0482   15.1635 Q=    0.4170 A=    0.0000 R=    0.0000 C=    0.0000
 XYZ=   16.2074   29.2784   14.7193 Q=   -0.8340 A=    0.0000 R=    0.0000 C=    0.0000
 XYZ=   16.3207   28.3911   14.3787 Q=    0.4170 A=    0.0000 R=    0.0000 C=    0.0000
 XYZ=   15.5870   29.1808   15.4417 Q=    0.4170 A=    0.0000 R=    0.0000 C=    0.0000
 XYZ=   18.5326   22.0650    3.7893 Q=   -0.8340 A=    0.0000 R=    0.0000 C=    0.0000
 XYZ=   18.6431   21.9252    2.8488 Q=    0.4170 A=    0.0000 R=    0.0000 C=    0.0000
 XYZ=   17.6203   21.8316    3.9610 Q=    0.4170 A=    0.0000 R=    0.0000 C=    0.0000
 XYZ=   13.8469   10.4974   26.2569 Q=   -0.8340 A=    0.0000 R=    0.0000 C=    0.0000
 XYZ=   13.9280    9.5794   25.9981 Q=    0.4170 A=    0.0000 R=    0.0000 C=    0.0000
 XYZ=   14.4145   10.5817   27.0230 Q=    0.4170 A=    0.0000 R=    0.0000 C=    0.0000
 XYZ=   20.4843   29.0250   18.8399 Q=   -0.8340 A=    0.0000 R=    0.0000 C=    0.0000
 XYZ=   21.2452   29.5962   18.7347 Q=    0.4170 A=    0.0000 R=    0.0000 C=    0.0000
 XYZ=   20.4147   28.5619   18.0051 Q=    0.4170 A=    0.0000 R=    0.0000 C=    0.0000
 XYZ=   22.4229   21.4190   25.4410 Q=   -0.8340 A=    0.0000 R=    0.0000 C=    0.0000
 XYZ=   22.1120   20.5400   25.6577 Q=    0.4170 A=    0.0000 R=    0.0000 C=    0.0000
 XYZ=   21.6326   21.9591   25.4381 Q=    0.4170 A=    0.0000 R=    0.0000 C=    0.0000
 XYZ=   11.4307   26.4213    8.5325 Q=   -0.8340 A=    0.0000 R=    0.0000 C=    0.0000
 XYZ=   11.5177   26.4732    9.4843 Q=    0.4170 A=    0.0000 R=    0.0000 C=    0.0000
 XYZ=   11.8029   25.5697    8.3036 Q=    0.4170 A=    0.0000 R=    0.0000 C=    0.0000
 XYZ=    6.4412   22.7900   15.2723 Q=   -0.8340 A=    0.0000 R=    0.0000 C=    0.0000
 XYZ=    6.6700   21.8847   15.0621 Q=    0.4170 A=    0.0000 R=    0.0000 C=    0.0000
 XYZ=    6.2343   22.7745   16.2068 Q=    0.4170 A=    0.0000 R=    0.0000 C=    0.0000
 XYZ=   22.2975   14.9947   12.6981 Q=   -0.8340 A=    0.0000 R=    0.0000 C=    0.0000
 XYZ=   22.7501   15.5593   13.3247 Q=    0.4170 A=    0.0000 R=    0.0000 C=    0.0000
 XYZ=   22.9946   14.6449   12.1432 Q=    0.4170 A=    0.0000 R=    0.0000 C=    0.0000
 XYZ=   21.1104   19.8609    2.9361 Q=   -0.8340 A=    0.0000 R=    0.0000 C=    0.0000
 XYZ=   20.9838   19.0926    3.4929 Q=    0.4170 A=    0.0000 R=    0.0000 C=    0.0000
 XYZ=   20.6265   19.6592    2.1352 Q=    0.4170 A=    0.0000 R=    0.0000 C=    0.0000
 XYZ=   15.6696   24.3767   26.2656 Q=   -0.8340 A=    0.0000 R=    0.0000 C=    0.0000
 XYZ=   15.2992   25.2092   25.9723 Q=    0.4170 A=    0.0000 R=    0.0000 C=    0.0000
 XYZ=   14.9125   23.8001   26.3682 Q=    0.4170 A=    0.0000 R=    0.0000 C=    0.0000
 XYZ=    8.9089    9.7438   24.5974 Q=   -0.8340 A=    0.0000 R=    0.0000 C=    0.0000
 XYZ=    7.9586    9.6361   24.6372 Q=    0.4170 A=    0.0000 R=    0.0000 C=    0.0000
 XYZ=    9.1178   10.3088   25.3413 Q=    0.4170 A=    0.0000 R=    0.0000 C=    0.0000
 XYZ=   26.1204    8.6857   13.8439 Q=   -0.8340 A=    0.0000 R=    0.0000 C=    0.0000
 XYZ=   25.2370    8.7833   13.4884 Q=    0.4170 A=    0.0000 R=    0.0000 C=    0.0000
 XYZ=   25.9858    8.3703   14.7376 Q=    0.4170 A=    0.0000 R=    0.0000 C=    0.0000
 XYZ=   27.7494   18.2977    7.8142 Q=   -0.8340 A=    0.0000 R=    0.0000 C=    0.0000
 XYZ=   27.2343   17.8706    7.1297 Q=    0.4170 A=    0.0000 R=    0.0000 C=    0.0000
 XYZ=   28.6484   18.2766    7.4864 Q=    0.4170 A=    0.0000 R=    0.0000 C=    0.0000
 XYZ=   15.8910    1.2987   16.8634 Q=   -0.8340 A=    0.0000 R=    0.0000 C=    0.0000
 XYZ=   15.8880    1.6682   15.9803 Q=    0.4170 A=    0.0000 R=    0.0000 C=    0.0000
 XYZ=   16.1875    0.3964   16.7449 Q=    0.4170 A=    0.0000 R=    0.0000 C=    0.0000
 XYZ=   21.8487   25.1943    8.8266 Q=   -0.8340 A=    0.0000 R=    0.0000 C=    0.0000
 XYZ=   22.3813   24.4692    9.1533 Q=    0.4170 A=    0.0000 R=    0.0000 C=    0.0000
 XYZ=   22.4112   25.6385    8.1921 Q=    0.4170 A=    0.0000 R=    0.0000 C=    0.0000
 XYZ=   21.0023   19.4604   20.3981 Q=   -0.8340 A=    0.0000 R=    0.0000 C=    0.0000
 XYZ=   21.3897   18.6144   20.1732 Q=    0.4170 A=    0.0000 R=    0.0000 C=    0.0000
 XYZ=   20.6749   19.3448   21.2901 Q=    0.4170 A=    0.0000 R=    0.0000 C=    0.0000
 XYZ=   13.5745   28.4919   15.3961 Q=   -0.8340 A=    0.0000 R=    0.0000 C=    0.0000
 XYZ=   13.0038   28.2527   16.1264 Q=    0.4170 A=    0.0000 R=    0.0000 C=    0.0000
 XYZ=   13.0294   29.0454   14.8369 Q=    0.4170 A=    0.0000 R=    0.0000 C=    0.0000
 XYZ=   11.3281   23.8638   18.7917 Q=   -0.8340 A=    0.0000 R=    0.0000 C=    0.0000
 XYZ=   11.6392   23.5781   17.9327 Q=    0.4170 A=    0.0000 R=    0.0000 C=    0.0000
 XYZ=   10.5690   23.3084   18.9689 Q=    0.4170 A=    0.0000 R=    0.0000 C=    0.0000
 XYZ=    4.4277   18.4098   10.4391 Q=   -0.8340 A=    0.0000 R=    0.0000 C=    0.0000
 XYZ=    4.1139   17.5434   10.6979 Q=    0.4170 A=    0.0000 R=    0.0000 C=    0.0000
 XYZ=    3.6553   18.8480   10.0819 Q=    0.4170 A=    0.0000 R=    0.0000 C=    0.0000
 XYZ=   10.7383   18.2996   24.2546 Q=   -0.8340 A=    0.0000 R=    0.0000 C=    0.0000
 XYZ=   10.8242   17.6087   23.5977 Q=    0.4170 A=    0.0000 R=    0.0000 C=    0.0000
 XYZ=   11.4092   18.9402   24.0183 Q=    0.4170 A=    0.0000 R=    0.0000 C=    0.0000
 XYZ=   13.3774    4.0894   11.6362 Q=   -0.8340 A=    0.0000 R=    0.0000 C=    0.0000
 XYZ=   12.5593    3.6832   11.3501 Q=    0.4170 A=    0.0000 R=    0.0000 C=    0.0000
 XYZ=   13.1920    5.0285   11.6361 Q=    0.4170 A=    0.0000 R=    0.0000 C=    0.0000
 XYZ=   13.8674   21.0149    5.2549 Q=   -0.8340 A=    0.0000 R=    0.0000 C=    0.0000
 XYZ=   14.4191   21.7721    5.4509 Q=    0.4170 A=    0.0000 R=    0.0000 C=    0.0000
 XYZ=   13.6480   20.6495    6.1120 Q=    0.4170 A=    0.0000 R=    0.0000 C=    0.0000
 XYZ=   22.3846   12.2560   17.3438 Q=   -0.8340 A=    0.0000 R=    0.0000 C=    0.0000
 XYZ=   21.6806   12.8856   17.4995 Q=    0.4170 A=    0.0000 R=    0.0000 C=    0.0000
 XYZ=   21.9420   11.4089   17.2923 Q=    0.4170 A=    0.0000 R=    0.0000 C=    0.0000
 XYZ=   10.1354    3.7079   20.5811 Q=   -0.8340 A=    0.0000 R=    0.0000 C=    0.0000
 XYZ=    9.4907    4.2525   20.1293 Q=    0.4170 A=    0.0000 R=    0.0000 C=    0.0000
 XYZ=    9.6280    3.2288   21.2362 Q=    0.4170 A=    0.0000 R=    0.0000 C=    0.0000
 XYZ=    5.0517   11.1499   24.3092 Q=   -0.8340 A=    0.0000 R=    0.0000 C=    0.0000
 XYZ=    5.1264   11.3867   25.2336 Q=    0.4170 A=    0.0000 R=    0.0000 C=    0.0000
 XYZ=    4.4853   11.8240   23.9337 Q=    0.4170 A=    0.0000 R=    0.0000 C=    0.0000
 XYZ=   10.1262    8.4667    6.0836 Q=   -0.8340 A=    0.0000 R=    0.0000 C=    0.0000
 XYZ=    9.6988    7.6133    6.1563 Q=    0.4170 A=    0.0000 R=    0.0000 C=    0.0000
 XYZ=   10.4248    8.6620    6.9718 Q=    0.4170 A=    0.0000 R=    0.0000 C=    0.0000
 XYZ=   20.1785    4.0830   24.3806 Q=   -0.8340 A=    0.0000 R=    0.0000 C=    0.0000
 XYZ=   20.5935    3.3320   23.9563 Q=    0.4170 A=    0.0000 R=    0.0000 C=    0.0000
 XYZ=   20.8826    4.7245   24.4753 Q=    0.4170 A=    0.0000 R=    0.0000 C=    0.0000
 XYZ=   11.5201   24.0457    4.6041 Q=   -0.8340 A=    0.0000 R=    0.0000 C=    0.0000
 XYZ=   11.5686   23.8423    3.6700 Q=    0.4170 A=    0.0000 R=    0.0000 C=    0.0000
 XYZ=   10.5914   23.9615    4.8202 Q=    0.4170 A=    0.0000 R=    0.0000 C=    0.0000
 XYZ=   14.4419   17.3646    9.2623 Q=   -0.8340 A=    0.0000 R=    0.0000 C=    0.0000
 XYZ=   13.8283   16.6466    9.1068 Q=    0.4170 A=    0.0000 R=    0.0000 C=    0.0000
 XYZ=   15.1184   17.2509    8.5948 Q=    0.4170 A=    0.0000 R=    0.0000 C=    0.0000
 XYZ=   16.0286   21.7170   25.3381 Q=   -0.8340 A=    0.0000 R=    0.0000 C=    0.0000
 XYZ=   16.3112   22.5201   25.7756 Q=    0.4170 A=    0.0000 R=    0.0000 C=    0.0000
 XYZ=   15.9826   21.0658   26.0382 Q=    0.4170 A=    0.0000 R=    0.0000 C=    0.0000
 XYZ=   25.8582    5.0658   13.7563 Q=   -0.8340 A=    0.0000 R=    0.0000 C=    0.0000
 XYZ=   25.8260    4.4894   14.5199 Q=    0.4170 A=    0.0000 R=    0.0000 C=    0.0000
 XYZ=   25.1214    5.6648   13.8765 Q=    0.4170 A=    0.0000 R=    0.0000 C=    0.0000
 XYZ=   17.1650    6.7884    6.2386 Q=   -0.8340 A=    0.0000 R=    0.0000 C=    0.0000
 XYZ=   16.4199    6.9691    6.8116 Q=    0.4170 A=    0.0000 R=    0.0000 C=    0.0000
 XYZ=   16.9873    7.2959    5.4467 Q=    0.4170 A=    0.0000 R=    0.0000 C=    0.0000
 XYZ=   25.9745   17.7920   27.5064 Q=   -0.8340 A=    0.0000 R=    0.0000 C=    0.0000
 XYZ=   25.5570   18.5774   27.8600 Q=    0.4170 A=    0.0000 R=    0.0000 C=    0.0000
 XYZ=   26.6604   17.5792   28.1393 Q=    0.4170 A=    0.0000 R=    0.0000 C=    0.0000
 XYZ=   13.5651   13.9625    3.1790 Q=   -0.8340 A=    0.0000 R=    0.0000 C=    0.0000
 XYZ=   12.8546   14.1529    2.5665 Q=    0.4170 A=    0.0000 R=    0.0000 C=    0.0000
 XYZ=   13.5150   14.6626    3.8298 Q=    0.4170 A=    0.0000 R=    0.0000 C=    0.0000
 XYZ=   12.9954   23.1149    9.8371 Q=   -0.8340 A=    0.0000 R=    0.0000 C=    0.0000
 XYZ=   12.3945   23.4615    9.1775 Q=    0.4170 A=    0.0000 R=    0.0000 C=    0.0000
 XYZ=   13.8614   23.1909    9.4363 Q=    0.4170 A=    0.0000 R=    0.0000 C=    0.0000
 XYZ=    8.7774    5.9355   14.3642 Q=   -0.8340 A=    0.0000 R=    0.0000 C=    0.0000
 XYZ=    8.6179    4.9982   14.4748 Q=    0.4170 A=    0.0000 R=    0.0000 C=    0.0000
 XYZ=    8.4908    6.1240   13.4706 Q=    0.4170 A=    0.0000 R=    0.0000 C=    0.0000
 XYZ=   21.5188   19.8187   30.3046 Q=   -0.8340 A=    0.0000 R=    0.0000 C=    0.0000
 XYZ=   22.1076   20.3295   30.8601 Q=    0.4170 A=    0.0000 R=    0.0000 C=    0.0000
 XYZ=   20.8287   20.4340   30.0568 Q=    0.4170 A=    0.0000 R=    0.0000 C=    0.0000
 XYZ=    7.3550   17.1471   27.3153 Q=   -0.8340 A=    0.0000 R=    0.0000 C=    0.0000
 XYZ=    7.0008   17.1211   26.4264 Q=    0.4170 A=    0.0000 R=    0.0000 C=    0.0000
 XYZ=    7.7870   16.3002   27.4264 Q=    0.4170 A=    0.0000 R=    0.0000 C=    0.0000
 XYZ=   11.9117   11.9581    9.2263 Q=   -0.8340 A=    0.0000 R=    0.0000 C=    0.0000
 XYZ=   11.8040   12.1675    8.2986 Q=    0.4170 A=    0.0000 R=    0.0000 C=    0.0000
 XYZ=   11.1163   11.4788    9.4581 Q=    0.4170 A=    0.0000 R=    0.0000 C=    0.0000
 XYZ=   20.2577   12.8934   13.2542 Q=   -0.8340 A=    0.0000 R=    0.0000 C=    0.0000
 XYZ=   19.4397   13.1935   12.8579 Q=    0.4170 A=    0.0000 R=    0.0000 C=    0.0000
 XYZ=   20.8632   13.6256   13.1387 Q=    0.4170 A=    0.0000 R=    0.0000 C=    0.0000
 XYZ=   10.1952   21.3921   16.8508 Q=   -0.8340 A=    0.0000 R=    0.0000 C=    0.0000
 XYZ=    9.4002   21.9165   16.7553 Q=    0.4170 A=    0.0000 R=    0.0000 C=    0.0000
 XYZ=   10.7076   21.5879   16.0663 Q=    0.4170 A=    0.0000 R=    0.0000 C=    0.0000
 XYZ=   15.3154   11.1677    3.5611 Q=   -0.8340 A=    0.0000 R=    0.0000 C=    0.0000
 XYZ=   14.7237   11.6116    2.9536 Q=    0.4170 A=    0.0000 R=    0.0000 C=    0.0000
 XYZ=   14.9156   10.3094    3.7015 Q=    0.4170 A=    0.0000 R=    0.0000 C=    0.0000
 XYZ=    4.5168   12.7466   19.3818 Q=   -0.8340 A=    0.0000 R=    0.0000 C=    0.0000
 XYZ=    4.0912   12.7284   18.5246 Q=    0.4170 A=    0.0000 R=    0.0000 C=    0.0000
 XYZ=    5.2660   12.1579   19.2904 Q=    0.4170 A=    0.0000 R=    0.0000 C=    0.0000
 XYZ=   18.9977    7.3163   19.4841 Q=   -0.8340 A=    0.0000 R=    0.0000 C=    0.0000
 XYZ=   19.6217    6.6609   19.7960 Q=    0.4170 A=    0.0000 R=    0.0000 C=    0.0000
 XYZ=   19.2775    8.1315   19.9006 Q=    0.4170 A=    0.0000 R=    0.0000 C=    0.0000
 XYZ=   18.7486   14.1995    6.9434 Q=   -0.8340 A=    0.0000 R=    0.0000 C=    0.0000
 XYZ=   18.8492   13.7108    7.7603 Q=    0.4170 A=    0.0000 R=    0.0000 C=    0.0000
 XYZ=   18.2514   13.6134    6.3728 Q=    0.4170 A=    0.0000 R=    0.0000 C=    0.0000
 XYZ=   20.2363    9.2480   15.6456 Q=   -0.8340 A=    0.0000 R=    0.0000 C=    0.0000
 XYZ=   19.3718    9.1368   16.0412 Q=    0.4170 A=    0.0000 R=    0.0000 C=    0.0000
 XYZ=   20.7973    9.5268   16.3693 Q=    0.4170 A=    0.0000 R=    0.0000 C=    0.0000
 XYZ=   23.9498    5.5770   17.1462 Q=   -0.8340 A=    0.0000 R=    0.0000 C=    0.0000
 XYZ=   23.6077    5.9999   16.3586 Q=    0.4170 A=    0.0000 R=    0.0000 C=    0.0000
 XYZ=   24.8920    5.5085   16.9919 Q=    0.4170 A=    0.0000 R=    0.0000 C=    0.0000
 XYZ=    9.8327   14.7176    5.8309 Q=   -0.8340 A=    0.0000 R=    0.0000 C=    0.0000
 XYZ=    9.0329   15.1276    5.5017 Q=    0.4170 A=    0.0000 R=    0.0000 C=    0.0000
 XYZ=   10.2651   14.3733    5.0494 Q=    0.4170 A=    0.0000 R=    0.0000 C=    0.0000
 XYZ=    7.9735   13.8428   11.8755 Q=   -0.8340 A=    0.0000 R=    0.0000 C=    0.0000
 XYZ=    7.6311   12.9697   12.0670 Q=    0.4170 A=    0.0000 R=    0.0000 C=    0.0000
 XYZ=    7.5509   14.4125   12.5182 Q=    0.4170 A=    0.0000 R=    0.0000 C=    0.0000
 XYZ=   23.3637   12.5342   28.3983 Q=   -0.8340 A=    0.0000 R=    0.0000 C=    0.0000
 XYZ=   23.7356   13.2044   28.9717 Q=    0.4170 A=    0.0000 R=    0.0000 C=    0.0000
 XYZ=   23.0141   13.0229   27.6532 Q=    0.4170 A=    0.0000 R=    0.0000 C=    0.0000
 XYZ=   24.6305   13.0168   15.6902 Q=   -0.8340 A=    0.0000 R=    0.0000 C=    0.0000
 XYZ=   23.7870   12.7365   16.0453 Q=    0.4170 A=    0.0000 R=    0.0000 C=    0.0000
 XYZ=   25.2212   12.2851   15.8687 Q=    0.4170 A=    0.0000 R=    0.0000 C=    0.0000
 XYZ=   27.2595   16.3325   22.4896 Q=   -0.8340 A=    0.0000 R=    0.0000 C=    0.0000
 XYZ=   26.5546   15.7556   22.7838 Q=    0.4170 A=    0.0000 R=    0.0000 C=    0.0000
 XYZ=   26.9461   17.2148   22.6884 Q=    0.4170 A=    0.0000 R=    0.0000 C=    0.0000
 XYZ=    7.1072   11.6717   12.9745 Q=   -0.8340 A=    0.0000 R=    0.0000 C=    0.0000
 XYZ=    6.4568   11.0456   13.2927 Q=    0.4170 A=    0.0000 R=    0.0000 C=    0.0000
 XYZ=    7.8408   11.5859   13.5834 Q=    0.4170 A=    0.0000 R=    0.0000 C=    0.0000
 XYZ=   19.7688   17.2004   23.6561 Q=   -0.8340 A=    0.0000 R=    0.0000 C=    0.0000
 XYZ=   19.9485   16.2738   23.4967 Q=    0.4170 A=    0.0000 R=    0.0000 C=    0.0000
 XYZ=   18.8336   17.2322   23.8579 Q=    0.4170 A=    0.0000 R=    0.0000 C=    0.0000
 XYZ=   13.2113    7.8774   22.9401 Q=   -0.8340 A=    0.0000 R=    0.0000 C=    0.0000
 XYZ=   13.7241    8.6842   22.9877 Q=    0.4170 A=    0.0000 R=    0.0000 C=    0.0000
 XYZ=   12.9361    7.7143   23.8423 Q=    0.4170 A=    0.0000 R=    0.0000 C=    0.0000
 XYZ=   29.4634   18.9625   14.5810 Q=   -0.8340 A=    0.0000 R=    0.0000 C=    0.0000
 XYZ=   29.4570   19.3464   15.4579 Q=    0.4170 A=    0.0000 R=    0.0000 C=    0.0000
 XYZ=   28.5958   19.1580   14.2271 Q=    0.4170 A=    0.0000 R=    0.0000 C=    0.0000
 XYZ=   21.6658   30.3325   14.5494 Q=   -0.8340 A=    0.0000 R=    0.0000 C=    0.0000
 XYZ=   22.4561   30.7292   14.1830 Q=    0.4170 A=    0.0000 R=    0.0000 C=    0.0000
 XYZ=   21.2021   29.9771   13.7912 Q=    0.4170 A=    0.0000 R=    0.0000 C=    0.0000
 XYZ=   20.7353   23.6529    4.1144 Q=   -0.8340 A=    0.0000 R=    0.0000 C=    0.0000
 XYZ=   19.9400   23.1410    3.9666 Q=    0.4170 A=    0.0000 R=    0.0000 C=    0.0000
 XYZ=   20.4361   24.5620    4.1296 Q=    0.4170 A=    0.0000 R=    0.0000 C=    0.0000
 XYZ=   25.4349   26.2027    9.9707 Q=   -0.8340 A=    0.0000 R=    0.0000 C=    0.0000
 XYZ=   25.5356   26.4827    9.0609 Q=    0.4170 A=    0.0000 R=    0.0000 C=    0.0000
 XYZ=   25.8545   26.8942   10.4825 Q=    0.4170 A=    0.0000 R=    0.0000 C=    0.0000
 XYZ=   16.2819   20.7892   20.2827 Q=   -0.8340 A=    0.0000 R=    0.0000 C=    0.0000
 XYZ=   16.8890   20.4861   19.6075 Q=    0.4170 A=    0.0000 R=    0.0000 C=    0.0000
 XYZ=   16.2320   20.0629   20.9040 Q=    0.4170 A=    0.0000 R=    0.0000 C=    0.0000
 XYZ=   18.6800   23.5338    9.8149 Q=   -0.8340 A=    0.0000 R=    0.0000 C=    0.0000
 XYZ=   18.8696   24.4108    9.4815 Q=    0.4170 A=    0.0000 R=    0.0000 C=    0.0000
 XYZ=   17.8039   23.6054   10.1938 Q=    0.4170 A=    0.0000 R=    0.0000 C=    0.0000
 XYZ=   27.8463    8.8645   17.9664 Q=   -0.8340 A=    0.0000 R=    0.0000 C=    0.0000
 XYZ=   27.9580    8.4019   18.7969 Q=    0.4170 A=    0.0000 R=    0.0000 C=    0.0000
 XYZ=   27.7100    9.7782   18.2171 Q=    0.4170 A=    0.0000 R=    0.0000 C=    0.0000
 XYZ=   18.7479   27.6096   26.3778 Q=   -0.8340 A=    0.0000 R=    0.0000 C=    0.0000
 XYZ=   18.2776   28.1283   27.0304 Q=    0.4170 A=    0.0000 R=    0.0000 C=    0.0000
 XYZ=   18.9916   28.2402   25.7002 Q=    0.4170 A=    0.0000 R=    0.0000 C=    0.0000
 XYZ=   25.5212   20.4821   26.6613 Q=   -0.8340 A=    0.0000 R=    0.0000 C=    0.0000
 XYZ=   25.7497   19.7080   26.1467 Q=    0.4170 A=    0.0000 R=    0.0000 C=    0.0000
 XYZ=   24.5958   20.6336   26.4689 Q=    0.4170 A=    0.0000 R=    0.0000 C=    0.0000
 XYZ=   11.5828    9.1280   16.3225 Q=   -0.8340 A=    0.0000 R=    0.0000 C=    0.0000
 XYZ=   12.0120    8.5499   16.9533 Q=    0.4170 A=    0.0000 R=    0.0000 C=    0.0000
 XYZ=   10.6602    8.8746   16.3539 Q=    0.4170 A=    0.0000 R=    0.0000 C=    0.0000
 XYZ=   16.7988   11.6147    7.8466 Q=   -0.8340 A=    0.0000 R=    0.0000 C=    0.0000
 XYZ=   17.7458   11.5013    7.7656 Q=    0.4170 A=    0.0000 R=    0.0000 C=    0.0000
 XYZ=   16.4873   11.6841    6.9442 Q=    0.4170 A=    0.0000 R=    0.0000 C=    0.0000
 XYZ=   23.2952   20.5101    4.8979 Q=   -0.8340 A=    0.0000 R=    0.0000 C=    0.0000
 XYZ=   23.3351   21.4659    4.8639 Q=    0.4170 A=    0.0000 R=    0.0000 C=    0.0000
 XYZ=   22.5993   20.2770    4.2834 Q=    0.4170 A=    0.0000 R=    0.0000 C=    0.0000
 XYZ=   29.3213   19.1893   20.5876 Q=   -0.8340 A=    0.0000 R=    0.0000 C=    0.0000
 XYZ=   28.9210   19.8914   20.0749 Q=    0.4170 A=    0.0000 R=    0.0000 C=    0.0000
 XYZ=   30.2518   19.2315   20.3671 Q=    0.4170 A=    0.0000 R=    0.0000 C=    0.0000
 XYZ=   24.1935   24.6720   25.5440 Q=   -0.8340 A=    0.0000 R=    0.0000 C=    0.0000
 XYZ=   23.5151   25.3260   25.3757 Q=    0.4170 A=    0.0000 R=    0.0000 C=    0.0000
 XYZ=   23.9043   23.8969   25.0625 Q=    0.4170 A=    0.0000 R=    0.0000 C=    0.0000
 XYZ=   25.0753   16.0482    8.7156 Q=   -0.8340 A=    0.0000 R=    0.0000 C=    0.0000
 XYZ=   25.1518   16.9937    8.5876 Q=    0.4170 A=    0.0000 R=    0.0000 C=    0.0000
 XYZ=   25.9793   15.7420    8.7885 Q=    0.4170 A=    0.0000 R=    0.0000 C=    0.0000
 XYZ=    7.8772   13.8290   26.7004 Q=   -0.8340 A=    0.0000 R=    0.0000 C=    0.0000
 XYZ=    7.3888   13.0195   26.8503 Q=    0.4170 A=    0.0000 R=    0.0000 C=    0.0000
 XYZ=    8.1351   13.7867   25.7796 Q=    0.4170 A=    0.0000 R=    0.0000 C=    0.0000
 XYZ=    8.5605   19.2668    8.6543 Q=   -0.8340 A=    0.0000 R=    0.0000 C=    0.0000
 XYZ=    8.1917   20.1405    8.7847 Q=    0.4170 A=    0.0000 R=    0.0000 C=    0.0000
 XYZ=    8.9241   19.0301    9.5075 Q=    0.4170 A=    0.0000 R=    0.0000 C=    0.0000
 XYZ=   13.5921   29.8024   19.2823 Q=   -0.8340 A=    0.0000 R=    0.0000 C=    0.0000
 XYZ=   13.7479   30.7207   19.5025 Q=    0.4170 A=    0.0000 R=    0.0000 C=    0.0000
 XYZ=   13.3448   29.3951   20.1125 Q=    0.4170 A=    0.0000 R=    0.0000 C=    0.0000
 XYZ=   12.8356   20.1986   25.9856 Q=   -0.8340 A=    0.0000 R=    0.0000 C=    0.0000
 XYZ=   12.9510   19.6171   25.2341 Q=    0.4170 A=    0.0000 R=    0.0000 C=    0.0000
 XYZ=   13.6723   20.1607   26.4490 Q=    0.4170 A=    0.0000 R=    0.0000 C=    0.0000
 XYZ=   20.4728   26.7541   10.6822 Q=   -0.8340 A=    0.0000 R=    0.0000 C=    0.0000
 XYZ=   19.5829   26.8650   10.3477 Q=    0.4170 A=    0.0000 R=    0.0000 C=    0.0000
 XYZ=   20.9029   26.1914   10.0382 Q=    0.4170 A=    0.0000 R=    0.0000 C=    0.0000
 XYZ=   13.4917    9.4377    6.9934 Q=   -0.8340 A=    0.0000 R=    0.0000 C=    0.0000
 XYZ=   12.7011    9.3662    7.5282 Q=    0.4170 A=    0.0000 R=    0.0000 C=    0.0000
 XYZ=   13.5757   10.3741    6.8134 Q=    0.4170 A=    0.0000 R=    0.0000 C=    0.0000
 XYZ=    3.0690   16.3523   22.8948 Q=   -0.8340 A=    0.0000 R=    0.0000 C=    0.0000
 XYZ=    3.0790   16.6325   23.8100 Q=    0.4170 A=    0.0000 R=    0.0000 C=    0.0000
 XYZ=    3.8200   16.7953   22.4999 Q=    0.4170 A=    0.0000 R=    0.0000 C=    0.0000
 XYZ=   11.1297   17.2158   27.0227 Q=   -0.8340 A=    0.0000 R=    0.0000 C=    0.0000
 XYZ=   11.0377   16.2812   26.8379 Q=    0.4170 A=    0.0000 R=    0.0000 C=    0.0000
 XYZ=   10.9526   17.6445   26.1853 Q=    0.4170 A=    0.0000 R=    0.0000 C=    0.0000
 XYZ=   24.0468   23.6290    9.7645 Q=   -0.8340 A=    0.0000 R=    0.0000 C=    0.0000
 XYZ=   24.6378   22.8897    9.9071 Q=    0.4170 A=    0.0000 R=    0.0000 C=    0.0000
 XYZ=   24.6101   24.4009    9.8207 Q=    0.4170 A=    0.0000 R=    0.0000 C=    0.0000
 XYZ=   21.2212   11.6311   10.5505 Q=   -0.8340 A=    0.0000 R=    0.0000 C=    0.0000
 XYZ=   21.9017   12.2912   10.6823 Q=    0.4170 A=    0.0000 R=    0.0000 C=    0.0000
 XYZ=   20.8243   11.5198   11.4144 Q=    0.4170 A=    0.0000 R=    0.0000 C=    0.0000
 XYZ=    7.2187   16.7768    7.6601 Q=   -0.8340 A=    0.0000 R=    0.0000 C=    0.0000
 XYZ=    6.9575   17.5711    8.1261 Q=    0.4170 A=    0.0000 R=    0.0000 C=    0.0000
 XYZ=    7.9329   16.4148    8.1846 Q=    0.4170 A=    0.0000 R=    0.0000 C=    0.0000
 XYZ=   19.7359   20.9836    9.3220 Q=   -0.8340 A=    0.0000 R=    0.0000 C=    0.0000
 XYZ=   19.2776   21.6227    9.8676 Q=    0.4170 A=    0.0000 R=    0.0000 C=    0.0000
 XYZ=   19.4827   21.2071    8.4264 Q=    0.4170 A=    0.0000 R=    0.0000 C=    0.0000
 XYZ=   16.0030    6.4073   23.5741 Q=   -0.8340 A=    0.0000 R=    0.0000 C=    0.0000
 XYZ=   16.3791    7.0921   23.0210 Q=    0.4170 A=    0.0000 R=    0.0000 C=    0.0000
 XYZ=   15.0711    6.6210   23.6203 Q=    0.4170 A=    0.0000 R=    0.0000 C=    0.0000
 XYZ=   23.5089   27.9261   16.9609 Q=   -0.8340 A=    0.0000 R=    0.0000 C=    0.0000
 XYZ=   23.3309   27.1292   16.4614 Q=    0.4170 A=    0.0000 R=    0.0000 C=    0.0000
 XYZ=   24.2262   28.3497   16.4894 Q=    0.4170 A=    0.0000 R=    0.0000 C=    0.0000
 XYZ=   17.7176    6.9788   25.8668 Q=   -0.8340 A=    0.0000 R=    0.0000 C=    0.0000
 XYZ=   17.0485    6.8132   25.2026 Q=    0.4170 A=    0.0000 R=    0.0000 C=    0.0000
 XYZ=   17.2228    7.1928   26.6578 Q=    0.4170 A=    0.0000 R=    0.0000 C=    0.0000
 XYZ=   17.2047   19.4512    9.0445 Q=   -0.8340 A=    0.0000 R=    0.0000 C=    0.0000
 XYZ=   17.3474   19.6522    9.9694 Q=    0.4170 A=    0.0000 R=    0.0000 C=    0.0000
 XYZ=   17.4095   18.5193    8.9671 Q=    0.4170 A=    0.0000 R=    0.0000 C=    0.0000
 XYZ=    4.6615    8.1961   10.1419 Q=   -0.8340 A=    0.0000 R=    0.0000 C=    0.0000
 XYZ=    5.1715    8.9188   10.5078 Q=    0.4170 A=    0.0000 R=    0.0000 C=    0.0000
 XYZ=    3.8626    8.6084    9.8131 Q=    0.4170 A=    0.0000 R=    0.0000 C=    0.0000
 XYZ=    8.1904   19.2315   24.3932 Q=   -0.8340 A=    0.0000 R=    0.0000 C=    0.0000
 XYZ=    9.0695   18.8547   24.4289 Q=    0.4170 A=    0.0000 R=    0.0000 C=    0.0000
 XYZ=    7.6037   18.4763   24.4331 Q=    0.4170 A=    0.0000 R=    0.0000 C=    0.0000
 XYZ=   13.6104   19.8355    7.7686 Q=   -0.8340 A=    0.0000 R=    0.0000 C=    0.0000
 XYZ=   12.6873   19.5942    7.8454 Q=    0.4170 A=    0.0000 R=    0.0000 C=    0.0000
 XYZ=   14.0104   19.5140    8.5767 Q=    0.4170 A=    0.0000 R=    0.0000 C=    0.0000
 XYZ=   17.8517   12.5316    5.1401 Q=   -0.8340 A=    0.0000 R=    0.0000 C=    0.0000
 XYZ=   17.1954   12.4086    4.4543 Q=    0.4170 A=    0.0000 R=    0.0000 C=    0.0000
 XYZ=   18.4511   11.7929    5.0339 Q=    0.4170 A=    0.0000 R=    0.0000 C=    0.0000
 XYZ=   13.5006   15.7542   22.4927 Q=   -0.8340 A=    0.0000 R=    0.0000 C=    0.0000
 XYZ=   14.1671   15.6209   21.8188 Q=    0.4170 A=    0.0000 R=    0.0000 C=    0.0000
 XYZ=   13.9283   15.4933   23.3083 Q=    0.4170 A=    0.0000 R=    0.0000 C=    0.0000
 XYZ=   17.0967   18.0383    3.8272 Q=   -0.8340 A=    0.0000 R=    0.0000 C=    0.0000
 XYZ=   17.5404   18.2843    4.6388 Q=    0.4170 A=    0.0000 R=    0.0000 C=    0.0000
 XYZ=   16.8869   18.8719    3.4062 Q=    0.4170 A=    0.0000 R=    0.0000 C=    0.0000
 XYZ=    7.7786   15.7808   20.0448 Q=   -0.8340 A=    0.0000 R=    0.0000 C=    0.0000
 XYZ=    7.7385   15.7293   19.0898 Q=    0.4170 A=    0.0000 R=    0.0000 C=    0.0000
 XYZ=    8.7145   15.7880   20.2456 Q=    0.4170 A=    0.0000 R=    0.0000 C=    0.0000
 XYZ=    8.1555   19.6457   27.8754 Q=   -0.8340 A=    0.0000 R=    0.0000 C=    0.0000
 XYZ=    7.9053   18.7219   27.8582 Q=    0.4170 A=    0.0000 R=    0.0000 C=    0.0000
 XYZ=    7.3260   20.1201   27.8198 Q=    0.4170 A=    0.0000 R=    0.0000 C=    0.0000
 XYZ=   15.7862   20.3007   23.1182 Q=   -0.8340 A=    0.0000 R=    0.0000 C=    0.0000
 XYZ=   15.9554   19.4245   23.4645 Q=    0.4170 A=    0.0000 R=    0.0000 C=    0.0000
 XYZ=   15.8441   20.8757   23.8812 Q=    0.4170 A=    0.0000 R=    0.0000 C=    0.0000
 XYZ=   10.7419   15.4334    3.0440 Q=   -0.8340 A=    0.0000 R=    0.0000 C=    0.0000
 XYZ=   10.3194   14.6841    2.6241 Q=    0.4170 A=    0.0000 R=    0.0000 C=    0.0000
 XYZ=   10.5471   16.1726    2.4681 Q=    0.4170 A=    0.0000 R=    0.0000 C=    0.0000
 XYZ=   24.1918   11.8406    8.4774 Q=   -0.8340 A=    0.0000 R=    0.0000 C=    0.0000
 XYZ=   24.2075   10.9620    8.0978 Q=    0.4170 A=    0.0000 R=    0.0000 C=    0.0000
 XYZ=   24.5317   12.4073    7.7849 Q=    0.4170 A=    0.0000 R=    0.0000 C=    0.0000
 XYZ=   29.7033   11.4420   16.7638 Q=   -0.8340 A=    0.0000 R=    0.0000 C=    0.0000
 XYZ=   29.1296   10.8962   16.2260 Q=    0.4170 A=    0.0000 R=    0.0000 C=    0.0000
 XYZ=   29.9088   12.1940   16.2085 Q=    0.4170 A=    0.0000 R=    0.0000 C=    0.0000
 XYZ=   19.5157   21.9288   27.5105 Q=   -0.8340 A=    0.0000 R=    0.0000 C=    0.0000
 XYZ=   19.7419   21.8147   28.4336 Q=    0.4170 A=    0.0000 R=    0.0000 C=    0.0000
 XYZ=   19.1091   21.0996   27.2588 Q=    0.4170 A=    0.0000 R=    0.0000 C=    0.0000
 XYZ=   22.4180   25.8216   15.5730 Q=   -0.8340 A=    0.0000 R=    0.0000 C=    0.0000
 XYZ=   21.9646   25.9636   14.7420 Q=    0.4170 A=    0.0000 R=    0.0000 C=    0.0000
 XYZ=   21.7159   25.6863   16.2094 Q=    0.4170 A=    0.0000 R=    0.0000 C=    0.0000
 XYZ=   15.4309   19.6187   27.2039 Q=   -0.8340 A=    0.0000 R=    0.0000 C=    0.0000
 XYZ=   15.3725   19.8370   28.1341 Q=    0.4170 A=    0.0000 R=    0.0000 C=    0.0000
 XYZ=   15.7843   18.7293   27.1879 Q=    0.4170 A=    0.0000 R=    0.0000 C=    0.0000
 XYZ=   11.1019   28.9107   12.5983 Q=   -0.8340 A=    0.0000 R=    0.0000 C=    0.0000
 XYZ=   11.1604   29.3560   13.4436 Q=    0.4170 A=    0.0000 R=    0.0000 C=    0.0000
 XYZ=   11.4236   29.5531   11.9658 Q=    0.4170 A=    0.0000 R=    0.0000 C=    0.0000
 XYZ=   17.7399   16.6951    9.1452 Q=   -0.8340 A=    0.0000 R=    0.0000 C=    0.0000
 XYZ=   17.3750   15.9014    8.7538 Q=    0.4170 A=    0.0000 R=    0.0000 C=    0.0000
 XYZ=   18.6863   16.6034    9.0357 Q=    0.4170 A=    0.0000 R=    0.0000 C=    0.0000
 XYZ=   24.4959    9.2045    7.8288 Q=   -0.8340 A=    0.0000 R=    0.0000 C=    0.0000
 XYZ=   25.1906    8.6005    8.0911 Q=    0.4170 A=    0.0000 R=    0.0000 C=    0.0000
 XYZ=   24.5927    9.2840    6.8798 Q=    0.4170 A=    0.0000 R=    0.0000 C=    0.0000
 XYZ=   16.5821    5.9441   12.0482 Q=   -0.8340 A=    0.0000 R=    0.0000 C=    0.0000
 XYZ=   17.4743    6.2826   12.1231 Q=    0.4170 A=    0.0000 R=    0.0000 C=    0.0000
 XYZ=   16.1275    6.5847   11.5012 Q=    0.4170 A=    0.0000 R=    0.0000 C=    0.0000
 XYZ=   25.0822   10.6068   21.0103 Q=   -0.8340 A=    0.0000 R=    0.0000 C=    0.0000
 XYZ=   24.8094   11.2086   21.7030 Q=    0.4170 A=    0.0000 R=    0.0000 C=    0.0000
 XYZ=   24.5189    9.8411   21.1221 Q=    0.4170 A=    0.0000 R=    0.0000 C=    0.0000
 XYZ=   23.1659   15.1836   15.8695 Q=   -0.8340 A=    0.0000 R=    0.0000 C=    0.0000
 XYZ=   23.7140   14.5686   15.3820 Q=    0.4170 A=    0.0000 R=    0.0000 C=    0.0000
 XYZ=   22.4217   14.6593   16.1653 Q=    0.4170 A=    0.0000 R=    0.0000 C=    0.0000
 XYZ=    9.8553   10.6743   26.8045 Q=   -0.8340 A=    0.0000 R=    0.0000 C=    0.0000
 XYZ=   10.3054    9.9212   27.1872 Q=    0.4170 A=    0.0000 R=    0.0000 C=    0.0000
 XYZ=    9.8769   11.3411   27.4909 Q=    0.4170 A=    0.0000 R=    0.0000 C=    0.0000
 XYZ=    8.2406   17.5687    5.2604 Q=   -0.8340 A=    0.0000 R=    0.0000 C=    0.0000
 XYZ=    7.5888   17.2652    5.8924 Q=    0.4170 A=    0.0000 R=    0.0000 C=    0.0000
 XYZ=    8.5597   18.3951    5.6229 Q=    0.4170 A=    0.0000 R=    0.0000 C=    0.0000
 XYZ=   22.8100   26.1016   19.1359 Q=   -0.8340 A=    0.0000 R=    0.0000 C=    0.0000
 XYZ=   22.9398   26.8202   18.5170 Q=    0.4170 A=    0.0000 R=    0.0000 C=    0.0000
 XYZ=   21.9354   25.7678   18.9360 Q=    0.4170 A=    0.0000 R=    0.0000 C=    0.0000
 XYZ=   13.6159   23.1328   22.9295 Q=   -0.8340 A=    0.0000 R=    0.0000 C=    0.0000
 XYZ=   14.4424   23.1821   22.4492 Q=    0.4170 A=    0.0000 R=    0.0000 C=    0.0000
 XYZ=   13.4008   22.2001   22.9420 Q=    0.4170 A=    0.0000 R=    0.0000 C=    0.0000
 XYZ=   13.8068   26.6093   12.9500 Q=   -0.8340 A=    0.0000 R=    0.0000 C=    0.0000
 XYZ=   13.5152   25.7191   12.7533 Q=    0.4170 A=    0.0000 R=    0.0000 C=    0.0000
 XYZ=   13.0360   27.1546   12.7928 Q=    0.4170 A=    0.0000 R=    0.0000 C=    0.0000
 XYZ=   22.0500   28.1260   21.5804 Q=   -0.8340 A=    0.0000 R=    0.0000 C=    0.0000
 XYZ=   21.1651   27.7816   21.7011 Q=    0.4170 A=    0.0000 R=    0.0000 C=    0.0000
 XYZ=   21.9838   29.0490   21.8251 Q=    0.4170 A=    0.0000 R=    0.0000 C=    0.0000
 XYZ=   19.9540   29.1203   12.2053 Q=   -0.8340 A=    0.0000 R=    0.0000 C=    0.0000
 XYZ=   20.4719   29.7315   11.6815 Q=    0.4170 A=    0.0000 R=    0.0000 C=    0.0000
 XYZ=   19.9283   28.3186   11.6830 Q=    0.4170 A=    0.0000 R=    0.0000 C=    0.0000
 XYZ=   10.9075   16.6314   22.1277 Q=   -0.8340 A=    0.0000 R=    0.0000 C=    0.0000
 XYZ=   11.8515   16.5445   22.2600 Q=    0.4170 A=    0.0000 R=    0.0000 C=    0.0000
 XYZ=   10.7965   16.6217   21.1770 Q=    0.4170 A=    0.0000 R=    0.0000 C=    0.0000
 XYZ=   10.5866    3.5897   13.8291 Q=   -0.8340 A=    0.0000 R=    0.0000 C=    0.0000
 XYZ=   10.4681    3.4221   12.8942 Q=    0.4170 A=    0.0000 R=    0.0000 C=    0.0000
 XYZ=   11.2410    4.2873   13.8667 Q=    0.4170 A=    0.0000 R=    0.0000 C=    0.0000
 XYZ=   11.0683   26.4894   11.2850 Q=   -0.8340 A=    0.0000 R=    0.0000 C=    0.0000
 XYZ=   11.0335   27.3910   11.6047 Q=    0.4170 A=    0.0000 R=    0.0000 C=    0.0000
 XYZ=   10.6803   25.9700   11.9892 Q=    0.4170 A=    0.0000 R=    0.0000 C=    0.0000
 XYZ=   17.4890   27.4942   17.0704 Q=   -0.8340 A=    0.0000 R=    0.0000 C=    0.0000
 XYZ=   17.1243   28.3294   17.3633 Q=    0.4170 A=    0.0000 R=    0.0000 C=    0.0000
 XYZ=   16.9922   27.2790   16.2811 Q=    0.4170 A=    0.0000 R=    0.0000 C=    0.0000
 XYZ=   24.4667   26.3725   21.6584 Q=   -0.8340 A=    0.0000 R=    0.0000 C=    0.0000
 XYZ=   23.7265   26.9172   21.3906 Q=    0.4170 A=    0.0000 R=    0.0000 C=    0.0000
 XYZ=   24.2313   25.4901   21.3718 Q=    0.4170 A=    0.0000 R=    0.0000 C=    0.0000
 XYZ=   17.3187    3.5088   20.4863 Q=   -0.8340 A=    0.0000 R=    0.0000 C=    0.0000
 XYZ=   17.5431    4.0525   21.2414 Q=    0.4170 A=    0.0000 R=    0.0000 C=    0.0000
 XYZ=   17.3202    4.1148   19.7453 Q=    0.4170 A=    0.0000 R=    0.0000 C=    0.0000
 XYZ=   16.4801   25.0683    7.0006 Q=   -0.8340 A=    0.0000 R=    0.0000 C=    0.0000
 XYZ=   16.4057   25.9400    6.6122 Q=    0.4170 A=    0.0000 R=    0.0000 C=    0.0000
 XYZ=   17.4223   24.9064    7.0482 Q=    0.4170 A=    0.0000 R=    0.0000 C=    0.0000
 XYZ=   21.9140    9.7687    8.5932 Q=   -0.8340 A=    0.0000 R=    0.0000 C=    0.0000
 XYZ=   22.0079   10.4799    9.2270 Q=    0.4170 A=    0.0000 R=    0.0000 C=    0.0000
 XYZ=   22.8123    9.5082    8.3898 Q=    0.4170 A=    0.0000 R=    0.0000 C=    0.0000
 XYZ=   15.5393    9.4948   23.5876 Q=   -0.8340 A=    0.0000 R=    0.0000 C=    0.0000
 XYZ=   16.0655    9.0328   22.9350 Q=    0.4170 A=    0.0000 R=    0.0000 C=    0.0000
 XYZ=   16.1797    9.8529   24.2023 Q=    0.4170 A=    0.0000 R=    0.0000 C=    0.0000
 XYZ=   17.4827    4.0098   23.7553 Q=   -0.8340 A=    0.0000 R=    0.0000 C=    0.0000
 XYZ=   17.1998    4.9149   23.6255 Q=    0.4170 A=    0.0000 R=    0.0000 C=    0.0000
 XYZ=   18.4261    4.0723   23.9048 Q=    0.4170 A=    0.0000 R=    0.0000 C=    0.0000
 XYZ=   29.0033   22.3025   15.4579 Q=   -0.8340 A=    0.0000 R=    0.0000 C=    0.0000
 XYZ=   28.5405   22.8142   16.1213 Q=    0.4170 A=    0.0000 R=    0.0000 C=    0.0000
 XYZ=   28.3082   21.8907   14.9444 Q=    0.4170 A=    0.0000 R=    0.0000 C=    0.0000
 XYZ=   12.9871   25.6974   15.6307 Q=   -0.8340 A=    0.0000 R=    0.0000 C=    0.0000
 XYZ=   13.2276   26.0271   14.7648 Q=    0.4170 A=    0.0000 R=    0.0000 C=    0.0000
 XYZ=   13.7919   25.7636   16.1447 Q=    0.4170 A=    0.0000 R=    0.0000 C=    0.0000
 XYZ=   27.9457   22.1704   12.4700 Q=   -0.8340 A=    0.0000 R=    0.0000 C=    0.0000
 XYZ=   27.4606   22.6480   11.7970 Q=    0.4170 A=    0.0000 R=    0.0000 C=    0.0000
 XYZ=   27.6787   21.2583   12.3564 Q=    0.4170 A=    0.0000 R=    0.0000 C=    0.0000
 XYZ=   12.8074   16.3761    4.5901 Q=   -0.8340 A=    0.0000 R=    0.0000 C=    0.0000
 XYZ=   12.6256   16.2177    5.5164 Q=    0.4170 A=    0.0000 R=    0.0000 C=    0.0000
 XYZ=   11.9460   16.5172    4.1972 Q=    0.4170 A=    0.0000 R=    0.0000 C=    0.0000
 XYZ=   20.3413    8.2222   28.2349 Q=   -0.8340 A=    0.0000 R=    0.0000 C=    0.0000
 XYZ=   20.5903    7.3154   28.4136 Q=    0.4170 A=    0.0000 R=    0.0000 C=    0.0000
 XYZ=   21.1734    8.6907   28.1678 Q=    0.4170 A=    0.0000 R=    0.0000 C=    0.0000
 XYZ=   16.0349   13.0278   25.0851 Q=   -0.8340 A=    0.0000 R=    0.0000 C=    0.0000
 XYZ=   16.8370   13.5501   25.0944 Q=    0.4170 A=    0.0000 R=    0.0000 C=    0.0000
 XYZ=   15.4063   13.5444   25.5893 Q=    0.4170 A=    0.0000 R=    0.0000 C=    0.0000
 XYZ=   18.4625   10.4256   28.6098 Q=   -0.8340 A=    0.0000 R=    0.0000 C=    0.0000
 XYZ=   19.0146   11.2053   28.6684 Q=    0.4170 A=    0.0000 R=    0.0000 C=    0.0000
 XYZ=   19.0706    9.7160   28.4027 Q=    0.4170 A=    0.0000 R=    0.0000 C=    0.0000
 XYZ=   31.3690   14.1896   17.9421 Q=   -0.8340 A=    0.0000 R=    0.0000 C=    0.0000
 XYZ=   30.9382   13.9098   17.1345 Q=    0.4170 A=    0.0000 R=    0.0000 C=    0.0000
 XYZ=   31.4228   15.1424   17.8677 Q=    0.4170 A=    0.0000 R=    0.0000 C=    0.0000
 XYZ=   20.1043   12.4562   28.9777 Q=   -0.8340 A=    0.0000 R=    0.0000 C=    0.0000
 XYZ=   20.1554   12.8873   29.8308 Q=    0.4170 A=    0.0000 R=    0.0000 C=    0.0000
 XYZ=   20.7062   12.9514   28.4220 Q=    0.4170 A=    0.0000 R=    0.0000 C=    0.0000
 XYZ=   12.8979   16.3298   30.8116 Q=   -0.8340 A=    0.0000 R=    0.0000 C=    0.0000
 XYZ=   13.0448   16.5507   31.7313 Q=    0.4170 A=    0.0000 R=    0.0000 C=    0.0000
 XYZ=   12.4441   15.4873   30.8366 Q=    0.4170 A=    0.0000 R=    0.0000 C=    0.0000
 XYZ=   10.9903    4.5569   24.6537 Q=   -0.8340 A=    0.0000 R=    0.0000 C=    0.0000
 XYZ=   11.7511    4.5543   24.0727 Q=    0.4170 A=    0.0000 R=    0.0000 C=    0.0000
 XYZ=   10.6679    5.4576   24.6228 Q=    0.4170 A=    0.0000 R=    0.0000 C=    0.0000
 XYZ=    3.4390   23.6806   18.3194 Q=   -0.8340 A=    0.0000 R=    0.0000 C=    0.0000
 XYZ=    3.9008   22.9610   18.7499 Q=    0.4170 A=    0.0000 R=    0.0000 C=    0.0000
 XYZ=    3.8778   24.4704   18.6354 Q=    0.4170 A=    0.0000 R=    0.0000 C=    0.0000
 XYZ=   24.1342   24.1691   14.0763 Q=   -0.8340 A=    0.0000 R=    0.0000 C=    0.0000
 XYZ=   24.9843   24.3575   13.6787 Q=    0.4170 A=    0.0000 R=    0.0000 C=    0.0000
 XYZ=   23.8992   24.9763   14.5340 Q=    0.4170 A=    0.0000 R=    0.0000 C=    0.0000
 XYZ=    9.4848   22.9979   25.5733 Q=   -0.8340 A=    0.0000 R=    0.0000 C=    0.0000
 XYZ=    9.7794   22.6076   24.7504 Q=    0.4170 A=    0.0000 R=    0.0000 C=    0.0000
 XYZ=    9.9869   22.5417   26.2486 Q=    0.4170 A=    0.0000 R=    0.0000 C=    0.0000
 XYZ=   11.7239   23.5923    7.4766 Q=   -0.8340 A=    0.0000 R=    0.0000 C=    0.0000
 XYZ=   12.0314   23.5207    6.5729 Q=    0.4170 A=    0.0000 R=    0.0000 C=    0.0000
 XYZ=   10.8837   23.1339    7.4811 Q=    0.4170 A=    0.0000 R=    0.0000 C=    0.0000
 XYZ=    4.9857   13.5088   10.7315 Q=   -0.8340 A=    0.0000 R=    0.0000 C=    0.0000
 XYZ=    5.7894   13.5297   11.2510 Q=    0.4170 A=    0.0000 R=    0.0000 C=    0.0000
 XYZ=    4.6277   12.6332   10.8784 Q=    0.4170 A=    0.0000 R=    0.0000 C=    0.0000
 XYZ=   14.5828   13.9804   27.5083 Q=   -0.8340 A=    0.0000 R=    0.0000 C=    0.0000
 XYZ=   13.7744   13.5811   27.8298 Q=    0.4170 A=    0.0000 R=    0.0000 C=    0.0000
 XYZ=   15.1730   13.9674   28.2617 Q=    0.4170 A=    0.0000 R=    0.0000 C=    0.0000
 XYZ=    8.8987   13.3394   24.1437 Q=   -0.8340 A=    0.0000 R=    0.0000 C=    0.0000
 XYZ=    9.6848   13.7522   23.7860 Q=    0.4170 A=    0.0000 R=    0.0000 C=    0.0000
 XYZ=    8.1732   13.8328   23.7609 Q=    0.4170 A=    0.0000 R=    0.0000 C=    0.0000
 XYZ=   27.6680   15.0007    9.0573 Q=   -0.8340 A=    0.0000 R=    0.0000 C=    0.0000
 XYZ=   27.7216   14.7274    8.1415 Q=    0.4170 A=    0.0000 R=    0.0000 C=    0.0000
 XYZ=   28.4409   15.5497    9.1895 Q=    0.4170 A=    0.0000 R=    0.0000 C=    0.0000
 XYZ=   27.1146   19.1849   22.3834 Q=   -0.8340 A=    0.0000 R=    0.0000 C=    0.0000
 XYZ=   27.9001   19.1513   21.8375 Q=    0.4170 A=    0.0000 R=    0.0000 C=    0.0000
 XYZ=   26.7822   20.0755   22.2712 Q=    0.4170 A=    0.0000 R=    0.0000 C=    0.0000
 XYZ=   22.1846    5.8335   24.5941 Q=   -0.8340 A=    0.0000 R=    0.0000 C=    0.0000
 XYZ=   23.0746    6.1651   24.4751 Q=    0.4170 A=    0.0000 R=    0.0000 C=    0.0000
 XYZ=   21.7099    6.5598   24.9982 Q=    0.4170 A=    0.0000 R=    0.0000 C=    0.0000
 XYZ=   27.3873   21.3175    6.8403 Q=   -0.8340 A=    0.0000 R=    0.0000 C=    0.0000
 XYZ=   26.5400   21.2373    7.2782 Q=    0.4170 A=    0.0000 R=    0.0000 C=    0.0000
 XYZ=   28.0282   21.0903    7.5140 Q=    0.4170 A=    0.0000 R=    0.0000 C=    0.0000
 XYZ=   18.5142   19.1107    6.2742 Q=   -0.8340 A=    0.0000 R=    0.0000 C=    0.0000
 XYZ=   17.8793   19.8103    6.1198 Q=    0.4170 A=    0.0000 R=    0.0000 C=    0.0000
 XYZ=   18.5150   18.9928    7.2241 Q=    0.4170 A=    0.0000 R=    0.0000 C=    0.0000
 XYZ=   10.8120   10.4290   22.6799 Q=   -0.8340 A=    0.0000 R=    0.0000 C=    0.0000
 XYZ=   11.2342   11.0194   23.3040 Q=    0.4170 A=    0.0000 R=    0.0000 C=    0.0000
 XYZ=   10.0352   10.1099   23.1393 Q=    0.4170 A=    0.0000 R=    0.0000 C=    0.0000
 XYZ=    5.2542   22.5727   10.1482 Q=   -0.8340 A=    0.0000 R=    0.0000 C=    0.0000
 XYZ=    5.5820   22.3740   11.0254 Q=    0.4170 A=    0.0000 R=    0.0000 C=    0.0000
 XYZ=    5.3551   23.5207   10.0634 Q=    0.4170 A=    0.0000 R=    0.0000 C=    0.0000
 XYZ=   15.5518   23.2990    8.7228 Q=   -0.8340 A=    0.0000 R=    0.0000 C=    0.0000
 XYZ=   15.7934   23.8970    8.0155 Q=    0.4170 A=    0.0000 R=    0.0000 C=    0.0000
 XYZ=   15.7600   22.4288    8.3830 Q=    0.4170 A=    0.0000 R=    0.0000 C=    0.0000
 XYZ=    7.6792   24.8578   13.8665 Q=   -0.8340 A=    0.0000 R=    0.0000 C=    0.0000
 XYZ=    7.6463   25.7953   14.0570 Q=    0.4170 A=    0.0000 R=    0.0000 C=    0.0000
 XYZ=    7.3864   24.4381   14.6754 Q=    0.4170 A=    0.0000 R=    0.0000 C=    0.0000
 XYZ=    5.4149   15.6135   17.3862 Q=   -0.8340 A=    0.0000 R=    0.0000 C=    0.0000
 XYZ=    5.8937   14.8038   17.5636 Q=    0.4170 A=    0.0000 R=    0.0000 C=    0.0000
 XYZ=    4.4932   15.3723   17.4786 Q=    0.4170 A=    0.0000 R=    0.0000 C=    0.0000
 XYZ=   19.6657   10.0339    5.0454 Q=   -0.8340 A=    0.0000 R=    0.0000 C=    0.0000
 XYZ=   19.4167    9.8745    4.1350 Q=    0.4170 A=    0.0000 R=    0.0000 C=    0.0000
 XYZ=   20.4408   10.5926    4.9879 Q=    0.4170 A=    0.0000 R=    0.0000 C=    0.0000
 XYZ=    5.8613   12.7996   16.5779 Q=   -0.8340 A=    0.0000 R=    0.0000 C=    0.0000
 XYZ=    6.0727   12.0352   16.0420 Q=    0.4170 A=    0.0000 R=    0.0000 C=    0.0000
 XYZ=    4.9383   12.6860   16.8046 Q=    0.4170 A=    0.0000 R=    0.0000 C=    0.0000
 XYZ=   24.6144   12.5171   25.5841 Q=   -0.8340 A=    0.0000 R=    0.0000 C=    0.0000
 XYZ=   25.4479   12.1716   25.2646 Q=    0.4170 A=    0.0000 R=    0.0000 C=    0.0000
 XYZ=   23.9952   11.7965   25.4671 Q=    0.4170 A=    0.0000 R=    0.0000 C=    0.0000
 XYZ=   17.3884    5.4460   18.3743 Q=   -0.8340 A=    0.0000 R=    0.0000 C=    0.0000
 XYZ=   17.7919    5.3150   17.5162 Q=    0.4170 A=    0.0000 R=    0.0000 C=    0.0000
 XYZ=   17.9152    6.1315   18.7851 Q=    0.4170 A=    0.0000 R=    0.0000 C=    0.0000
 XYZ=   30.3346   13.5326   15.2495 Q=   -0.8340 A=    0.0000 R=    0.0000 C=    0.0000
 XYZ=   30.1692   14.4452   15.4862 Q=    0.4170 A=    0.0000 R=    0.0000 C=    0.0000
 XYZ=   30.3663   13.5348   14.2928 Q=    0.4170 A=    0.0000 R=    0.0000 C=    0.0000
 XYZ=   17.0289   31.8092   16.3255 Q=   -0.8340 A=    0.0000 R=    0.0000 C=    0.0000
 XYZ=   17.8563   31.9113   15.8551 Q=    0.4170 A=    0.0000 R=    0.0000 C=    0.0000
 XYZ=   16.8205   30.8784   16.2451 Q=    0.4170 A=    0.0000 R=    0.0000 C=    0.0000
 XYZ=   26.9179   12.2294    9.7637 Q=   -0.8340 A=    0.0000 R=    0.0000 C=    0.0000
 XYZ=   26.0531   12.3198    9.3634 Q=    0.4170 A=    0.0000 R=    0.0000 C=    0.0000
 XYZ=   27.2493   13.1253    9.8242 Q=    0.4170 A=    0.0000 R=    0.0000 C=    0.0000
 XYZ=   11.4040   14.1787   23.2249 Q=   -0.8340 A=    0.0000 R=    0.0000 C=    0.0000
 XYZ=   12.0007   13.5095   23.5601 Q=    0.4170 A=    0.0000 R=    0.0000 C=    0.0000
 XYZ=   11.9420   14.7058   22.6342 Q=    0.4170 A=    0.0000 R=    0.0000 C=    0.0000
 XYZ=   11.7378   20.9023    3.1435 Q=   -0.8340 A=    0.0000 R=    0.0000 C=    0.0000
 XYZ=   12.4933   20.7694    3.7160 Q=    0.4170 A=    0.0000 R=    0.0000 C=    0.0000
 XYZ=   11.7661   21.8328    2.9209 Q=    0.4170 A=    0.0000 R=    0.0000 C=    0.0000
 XYZ=    6.0686   25.9502   17.6178 Q=   -0.8340 A=    0.0000 R=    0.0000 C=    0.0000
 XYZ=    6.7531   25.3046   17.7936 Q=    0.4170 A=    0.0000 R=    0.0000 C=    0.0000
 XYZ=    5.4892   25.8988   18.3780 Q=    0.4170 A=    0.0000 R=    0.0000 C=    0.0000
 XYZ=   11.2947   30.2452   14.8153 Q=   -0.8340 A=    0.0000 R=    0.0000 C=    0.0000
 XYZ=   10.5616   30.2974   15.4285 Q=    0.4170 A=    0.0000 R=    0.0000 C=    0.0000
 XYZ=   11.7027   31.1103   14.8548 Q=    0.4170 A=    0.0000 R=    0.0000 C=    0.0000
 XYZ=   18.2432   14.3573   25.7228 Q=   -0.8340 A=    0.0000 R=    0.0000 C=    0.0000
 XYZ=   18.9894   14.3759   25.1236 Q=    0.4170 A=    0.0000 R=    0.0000 C=    0.0000
 XYZ=   18.6177   14.5646   26.5790 Q=    0.4170 A=    0.0000 R=    0.0000 C=    0.0000
 XYZ=   14.7145   30.8503   22.3422 Q=   -0.8340 A=    0.0000 R=    0.0000 C=    0.0000
 XYZ=   15.4678   30.2599   22.3558 Q=    0.4170 A=    0.0000 R=    0.0000 C=    0.0000
 XYZ=   14.0072   30.3462   22.7445 Q=    0.4170 A=    0.0000 R=    0.0000 C=    0.0000
 XYZ=   15.7809   22.5075   17.6827 Q=   -0.8340 A=    0.0000 R=    0.0000 C=    0.0000
 XYZ=   16.7133   22.3868   17.8625 Q=    0.4170 A=    0.0000 R=    0.0000 C=    0.0000
 XYZ=   15.6099   23.4223   17.9062 Q=    0.4170 A=    0.0000 R=    0.0000 C=    0.0000
 XYZ=   18.9171    7.5426   11.9983 Q=   -0.8340 A=    0.0000 R=    0.0000 C=    0.0000
 XYZ=   19.8290    7.8334   11.9867 Q=    0.4170 A=    0.0000 R=    0.0000 C=    0.0000
 XYZ=   18.5141    7.9865   11.2522 Q=    0.4170 A=    0.0000 R=    0.0000 C=    0.0000
 XYZ=   22.4296   18.5314   26.2154 Q=   -0.8340 A=    0.0000 R=    0.0000 C=    0.0000
 XYZ=   22.4795   18.1734   27.1018 Q=    0.4170 A=    0.0000 R=    0.0000 C=    0.0000
 XYZ=   23.2952   18.3672   25.8412 Q=    0.4170 A=    0.0000 R=    0.0000 C=    0.0000
 XYZ=    7.3060   20.1695   14.9484 Q=   -0.8340 A=    0.0000 R=    0.0000 C=    0.0000
 XYZ=    7.1238   19.4011   14.4075 Q=    0.4170 A=    0.0000 R=    0.0000 C=    0.0000
 XYZ=    8.1302   19.9628   15.3891 Q=    0.4170 A=    0.0000 R=    0.0000 C=    0.0000
 XYZ=   13.2287    4.2370   23.0023 Q=   -0.8340 A=    0.0000 R=    0.0000 C=    0.0000
 XYZ=   13.8791    3.6315   23.3580 Q=    0.4170 A=    0.0000 R=    0.0000 C=    0.0000
 XYZ=   13.3565    4.1970   22.0545 Q=    0.4170 A=    0.0000 R=    0.0000 C=    0.0000
 XYZ=   18.5857    2.1913   14.8835 Q=   -0.8340 A=    0.0000 R=    0.0000 C=    0.0000
 XYZ=   19.3723    1.7195   15.1575 Q=    0.4170 A=    0.0000 R=    0.0000 C=    0.0000
 XYZ=   17.8773    1.7887   15.3858 Q=    0.4170 A=    0.0000 R=    0.0000 C=    0.0000
 XYZ=   14.0623    8.8253    4.3346 Q=   -0.8340 A=    0.0000 R=    0.0000 C=    0.0000
 XYZ=   13.9888    8.8670    5.2880 Q=    0.4170 A=    0.0000 R=    0.0000 C=    0.0000
 XYZ=   13.1714    8.6484    4.0327 Q=    0.4170 A=    0.0000 R=    0.0000 C=    0.0000
 XYZ=   30.4262   14.8228   20.6645 Q=   -0.8340 A=    0.0000 R=    0.0000 C=    0.0000
 XYZ=   30.7216   14.3412   19.8918 Q=    0.4170 A=    0.0000 R=    0.0000 C=    0.0000
 XYZ=   29.5757   15.1825   20.4125 Q=    0.4170 A=    0.0000 R=    0.0000 C=    0.0000
 XYZ=   27.0190   27.2466   20.7161 Q=   -0.8340 A=    0.0000 R=    0.0000 C=    0.0000
 XYZ=   27.4945   27.6330   21.4515 Q=    0.4170 A=    0.0000 R=    0.0000 C=    0.0000
 XYZ=   26.1571   27.0329   21.0733 Q=    0.4170 A=    0.0000 R=    0.0000 C=    0.0000
 XYZ=   23.6514    6.9469   13.7877 Q=   -0.8340 A=    0.0000 R=    0.0000 C=    0.0000
 XYZ=   22.7587    7.1975   14.0255 Q=    0.4170 A=    0.0000 R=    0.0000 C=    0.0000
 XYZ=   23.7339    7.1970   12.8675 Q=    0.4170 A=    0.0000 R=    0.0000 C=    0.0000
 XYZ=   15.4109   10.3696   28.7185 Q=   -0.8340 A=    0.0000 R=    0.0000 C=    0.0000
 XYZ=   16.3018   10.4569   28.3794 Q=    0.4170 A=    0.0000 R=    0.0000 C=    0.0000
 XYZ=   15.4823   10.6035   29.6439 Q=    0.4170 A=    0.0000 R=    0.0000 C=    0.0000
 XYZ=   22.1750   17.3824   28.8287 Q=   -0.8340 A=    0.0000 R=    0.0000 C=    0.0000
 XYZ=   22.5400   16.7439   29.4413 Q=    0.4170 A=    0.0000 R=    0.0000 C=    0.0000
 XYZ=   22.1817   18.2090   29.3114 Q=    0.4170 A=    0.0000 R=    0.0000 C=    0.0000
 XYZ=   13.9974   30.3294   12.7243 Q=   -0.8340 A=    0.0000 R=    0.0000 C=    0.0000
 XYZ=   14.4229   30.0411   13.5318 Q=    0.4170 A=    0.0000 R=    0.0000 C=    0.0000
 XYZ=   14.0858   31.2825   12.7335 Q=    0.4170 A=    0.0000 R=    0.0000 C=    0.0000
 XYZ=   29.4884   16.0268   15.6376 Q=   -0.8340 A=    0.0000 R=    0.0000 C=    0.0000
 XYZ=   28.5559   16.0466   15.4226 Q=    0.4170 A=    0.0000 R=    0.0000 C=    0.0000
 XYZ=   29.8426   16.8238   15.2433 Q=    0.4170 A=    0.0000 R=    0.0000 C=    0.0000
 XYZ=   11.3678   22.4550   29.6873 Q=   -0.8340 A=    0.0000 R=    0.0000 C=    0.0000
[...]
 .00003939,-0.00002312,0.00005159,0.00001319,0.00000280,0.00007137,0.00
 003563,0.00021390,-0.00014214,0.00006089,-0.00005226,0.00004794,0.0000
 0800,-0.00023955,0.00019300,-0.00004791,0.00011786,0.00010914,0.000204
 25,-0.00000560,-0.00001672,-0.00002788,-0.00013147,-0.00018408,-0.0001
 2706,-0.00023383,-0.00010371,0.00006456,0.00020154,0.00007311,-0.00006
 116,0.00007040,0.00006845,-0.00002182,0.00015591,0.00011527,0.00008255
 ,-0.00008137,-0.00002481,-0.00004805,-0.00011699,-0.00001481,-0.000048
 74,0.00091641,-0.00075785,-0.00054642,-0.00119573,0.00100371,0.0005350
 4,-0.00016107,0.00008761,0.00024359,0.00039585,0.00084957,0.00038505,0
 .00043792,-0.00104844,-0.00003991,0.00005663,-0.00001577,-0.00005621,0
 .00011244,0.00000593,0.00011141,-0.00004515,0.00000867,-0.00005192,-0.
 00005784,0.00002037,-0.00006844,0.00002667,-0.00002189,0.00015416,-0.0
 0001021,0.00004168,-0.00008946,-0.00003522,-0.00000440,-0.00009920,0.0
 0037898,0.00019564,-0.00003205,-0.00016626,-0.00007973,0.00004053,-0.0
 0032198,-0.00006688,0.00006151,-0.00030550,-0.00040080,0.00010067,0.00
 005336,0.00016307,-0.00003518,0.00017194,0.00024085,0.00002861,0.00823
 376,0.49540391,0.00191800,-0.00155921,-0.00236639,-0.00009204,-0.00167
 548,-0.00031038,-0.00026366,0.00159668,0.00055108,0.00039853,-0.001637
 92,-0.00068384,-0.00036507,0.00053495,0.00063318,-0.00042466,-0.000263
 88,0.00105442,-0.00008142,-0.00001144,-0.00008024,0.00036001,0.0011413
 4,0.00015160,-0.00136572,0.00040065,0.00146011,-0.00062849,0.00213413,
 0.00054931,0.00104835,-0.00127717,-0.00043453,0.00001677,-0.00007004,-
 0.00016106,-0.00003528,0.00007178,0.00005888,0.00000829,-0.00004533,-0
 .00005265,0.00001672,-0.00001335,-0.00001385,-0.00002407,-0.00003843,0
 .00035213,-0.00005530,-0.00015312,-0.00017094,0.00007697,0.00003917,-0
 .00018681,-0.00122432,-0.01264159,-0.00829865,0.00132829,0.00010736,-0
 .00117373,0.00133108,0.00731225,0.00294238,-0.00002749,0.00009463,0.00
 012488,-0.00001013,0.00000528,-0.00008167,0.00001466,-0.00005482,-0.00
 005099,-0.00056561,0.00034157,-0.00044359,0.00070683,-0.00034102,0.000
 47494,0.00021488,0.00001903,0.00012641,0.00085355,0.00041948,0.0011000
 6,0.00017554,0.00011008,-0.00100807,-0.00039835,-0.00021954,-0.0004056
 4,-0.00002947,-0.00016554,0.00028240,-0.00002012,0.00002303,-0.0000980
 6,0.00001341,0.00012172,-0.00008843,-0.00010577,0.00010835,0.00016447,
 0.00001866,-0.00000459,-0.00008600,0.00012479,-0.00013188,-0.00011704,
 -0.00004023,0.00037846,-0.00021810,0.00003083,-0.00009482,0.00004380,0
 .00001889,-0.00035546,0.00018055,0.00016820,0.00010620,0.00018229,-0.0
 0021389,-0.00010616,-0.00006091,-0.00002516,-0.00005890,-0.00007314,-0
 .00025857,0.00023338,0.00007182,0.00008689,-0.00010213,0.00000490,0.00
 008691,-0.00002233,-0.00014796,0.00175927,-0.00194564,-0.00071933,-0.0
 0245432,0.00239449,0.00068947,-0.00024051,0.00028951,0.00041126,-0.001
 59943,0.00113845,0.00032294,0.00084047,-0.00016522,-0.00094119,0.00009
 909,-0.00049578,-0.00008228,-0.00010689,0.00015343,0.00003710,0.000063
 21,-0.00007618,0.00000104,0.00003410,-0.00006837,-0.00005831,0.0000348
 2,0.00019595,-0.00013539,-0.00000439,-0.00009840,0.00004916,-0.0000554
 6,-0.00015913,0.00010535,0.00030029,-0.00026370,0.00059327,-0.00034926
 ,0.00016887,-0.00009163,0.00000256,0.00026000,-0.00054428,-0.00027200,
 -0.00061010,0.00099414,-0.00011519,0.00009970,-0.00035275,0.00032007,0
 .00061201,-0.00025986,-0.11238362,-0.01725420,0.70770375,0.00019681,0.
 00030359,0.00002543,0.00066072,-0.00022975,-0.00065701,-0.00032099,-0.
 00005095,0.00003002,0.00040892,-0.00000847,-0.00014867,-0.00034384,-0.
 00026396,0.00015363,0.00082653,-0.00017668,0.00020525,0.00000253,-0.00
 006632,0.00007170,-0.00020990,-0.00008309,0.00005187,-0.00028609,-0.00
 012938,0.00010284,-0.00049715,0.00000927,0.00021527,0.00020138,0.00134
 132,0.00013965,0.00000102,-0.00000994,0.00003928,-0.00003236,-0.000034
 02,-0.00000040,0.00002959,0.00001272,0.00001300,0.00000410,0.00000327,
 -0.00000375,-0.00005686,0.00004136,0.00000201,0.00003056,0.00000008,0.
 00000709,0.00003838,-0.00000742,-0.00002148,0.00082085,-0.00142229,-0.
 00114353,0.00018070,0.00017717,0.00004619,-0.00187470,0.00189652,0.001
 32579,-0.00004423,-0.00001415,-0.00001135,0.00001991,0.00000565,0.0000
 0352,0.00002355,0.00000078,0.00000089,0.00003805,-0.00037884,0.0005521
 5,-0.00025918,0.00047575,-0.00080104,-0.00011348,0.00001057,-0.0001387
 2,0.00024684,0.00102599,0.00007956,0.00002656,-0.00042541,-0.00032585,
 0.00015947,-0.00029338,0.00015375,-0.00006189,0.00000108,0.00001461,0.
 00002108,-0.00000002,0.00000356,0.00002395,-0.00000794,-0.00000659,-0.
 00002654,-0.00007878,-0.00000846,0.00000686,0.00002489,0.00000230,0.00
 002877,0.00004740,0.00000738,-0.00020065,-0.00022978,0.00011537,0.0000
 2051,0.00004431,-0.00004992,0.00020286,0.00030868,-0.00012028,-0.00006
 269,0.00009438,-0.00001886,0.00007781,-0.00003660,0.00001294,0.0000083
 8,-0.00002575,-0.00000803,0.00013898,-0.00033300,0.00012784,0.00002300
 ,0.00012454,-0.00008147,-0.00003621,0.00009152,0.00002027,0.00003995,-
 0.00013241,-0.00006599,-0.00010765,0.00010508,0.00002798,0.00000822,0.
 00002270,0.00003024,0.00128906,-0.00144410,0.00026924,-0.00139587,0.00
 048491,0.00036914,-0.00023684,0.00045595,-0.00010207,-0.00002453,-0.00
 011677,0.00004439,0.00001552,0.00002255,-0.00002109,0.00001440,0.00004
 367,0.00000567,-0.00012739,-0.00002308,0.00001719,0.00003691,-0.000005
 91,0.00000477,0.00011941,0.00006050,-0.00003182,0.00002721,-0.00019064
 ,-0.00017305,0.00000621,0.00001757,0.00005249,0.00005816,0.00014579,0.
 00004739,-0.00018894,0.00010803,0.00007034,0.00004556,-0.00003098,0.00
 002600,0.00006656,0.00003300,-0.00002715,-0.00896405,0.02935945,0.0647
 1621,0.00848044,0.00084661,-0.00078088,-0.00080115,0.00016835,-0.00135
 420,-0.00033764,-0.00027080,0.00117698,0.00039712,0.00026593,-0.001125
 55,-0.00028998,-0.00019934,0.00027322,0.00018926,-0.00035668,-0.000801
 85,0.00121304,-0.00004187,0.00000828,-0.00002458,0.00026208,0.00082449
 ,0.00000193,-0.00071895,0.00026339,0.00051444,-0.00019047,0.00058376,0
 .00036263,0.00068595,-0.00049205,-0.00013449,0.00003074,-0.00008737,-0
 .00004060,-0.00006067,0.00004738,-0.00003145,0.00004740,-0.00004052,0.
 00003088,0.00001679,-0.00001115,0.00000938,0.00004220,0.00011791,0.000
 12887,-0.00004370,-0.00011501,-0.00007088,0.00002538,-0.00003661,-0.00
 006763,-0.00034088,-0.00098472,-0.00131434,0.00020352,-0.00004713,-0.0
 0032607,0.00071447,0.00105620,0.00284930,-0.00006653,0.00011345,-0.000
 00105,0.00001148,-0.00003146,-0.00001940,0.00002286,-0.00005861,-0.000
 00044,-0.00023563,-0.00028205,-0.00024243,0.00033619,0.00020494,0.0003
 1791,0.00006042,0.00011814,0.00005101,0.00057810,0.00030563,0.00033259
 ,-0.00010413,-0.00016872,-0.00031935,-0.00020714,-0.00016585,-0.000139
 69,-0.00002575,0.00001464,0.00009853,0.00000586,-0.00002102,-0.0000339
 1,0.00000368,-0.00000037,-0.00004000,-0.00012980,0.00009855,0.00001200
 ,0.00002994,-0.00002541,-0.00002672,0.00014207,-0.00012440,-0.00000745
 ,-0.00009481,0.00002618,-0.00018524,0.00001148,-0.00001089,0.00003707,
 0.00010565,0.00001368,0.00013121,0.00017196,0.00009341,0.00001513,-0.0
 0017012,-0.00007784,0.00001715,-0.00004409,-0.00005542,-0.00000882,-0.
 00015312,0.00002059,-0.00004844,0.00006113,-0.00001684,0.00003336,0.00
 007920,-0.00000825,-0.00000623,0.00017773,-0.00020412,0.00001257,-0.00
 028059,0.00027366,0.00000698,-0.00001906,0.00001367,0.00002004,-0.0006
 3260,-0.00010352,-0.00018089,0.00023383,0.00041725,0.00002454,0.000030
 76,-0.00013175,0.00004015,-0.00008707,0.00003906,-0.00005368,0.0000420
 6,-0.00002430,0.00003146,0.00003933,-0.00002847,0.00001996,-0.00001175
 ,0.00006572,-0.00013403,0.00000668,-0.00005384,0.00006532,0.00001214,-
 0.00003999,0.00009471,-0.00011178,-0.00006921,0.00014556,0.00000010,0.
 00002150,-0.00004428,0.00011764,0.00006924,-0.00015208,0.00002165,0.00
 000322,0.00025532,-0.00005820,-0.00005227,-0.00009768,0.00003043,0.000
 07136,-0.00008340,0.03934495,-0.17894664,-0.25771793,-0.03353510,0.166
 18191,-0.00034223,0.00011115,0.00043450,-0.00044849,0.00080996,0.00055
 495,0.00015601,-0.00060247,-0.00033793,-0.00023164,0.00043608,0.000350
 07,0.00021880,-0.00001086,-0.00022021,0.00020115,0.00086664,-0.0000679
 9,0.00003467,0.00004660,0.00002765,-0.00005441,-0.00031309,-0.00009910
 ,0.00032999,-0.00004677,-0.00037244,0.00009854,-0.00029646,-0.00057503
 ,0.00002864,-0.00006933,0.00056823,0.00001935,0.00002271,0.00003587,0.
 00001289,-0.00002526,-0.00002980,-0.00000023,0.00001341,0.00002452,-0.
 00000642,0.00000509,0.00000703,0.00000335,0.00001508,-0.00010140,0.000
 01585,0.00004326,0.00005202,-0.00001860,-0.00001149,0.00004817,-0.0000
 3038,0.00201708,0.00188214,-0.00004409,-0.00025750,-0.00000903,-0.0005
 6541,-0.00244068,-0.00324323,0.00000683,-0.00002318,-0.00004475,0.0000
 0210,-0.00000176,0.00002342,-0.00000402,0.00001680,0.00001944,0.000624
 89,-0.00037324,0.00008433,-0.00072099,0.00038103,0.00012718,-0.0001709
 6,-0.00002543,-0.00003368,0.00002310,0.00027216,-0.00052071,-0.0001877
 8,-0.00035651,0.00008757,0.00014703,-0.00000350,0.00023318,0.00000479,
 0.00003840,-0.00007277,0.00000502,-0.00000505,0.00002780,-0.00000013,-
 0.00002921,0.00002302,0.00002745,-0.00001508,-0.00005851,-0.00000770,-
 0.00000058,0.00002391,-0.00002488,0.00001464,0.00003784,0.00002621,-0.
 00027237,0.00006277,-0.00002790,0.00006055,-0.00002231,-0.00002621,0.0
 0028444,-0.00005612,-0.00005188,-0.00002335,-0.00007304,0.00006330,0.0
 0003240,0.00003302,0.00000811,0.00001623,0.00002344,0.00006792,-0.0000
 2876,-0.00010774,-0.00004950,0.00003713,0.00004176,-0.00001241,-0.0000
 1380,0.00006044,-0.00022482,0.00035521,0.00010823,0.00031780,-0.000418
 27,-0.00013346,0.00002682,-0.00006362,-0.00006045,0.00008247,-0.000143
 41,-0.00056697,0.00035542,-0.00003515,0.00052042,0.00001338,0.00004054
 ,-0.00004753,0.00005063,-0.00005886,-0.00004997,-0.00003268,0.00004273
 ,0.00001222,-0.00001101,0.00002107,0.00003376,-0.00002602,-0.00011686,
 0.00004099,0.00000551,0.00004282,-0.00000502,0.00004099,0.00010148,-0.
 00003327,-0.00010443,0.00016258,-0.00014085,0.00008474,-0.00008371,0.0
 0000383,-0.00000061,-0.00012240,0.00013208,0.00002092,0.00016754,-0.00
 021299,0.00002735,-0.00003196,0.00010316,-0.00004552,-0.00011394,0.000
 04775,0.06569792,-0.19742259,-0.41170355,-0.07002122,0.21787370,0.4418
 4545,0.00051239,-0.00003193,-0.00034871,0.00011874,0.00002180,0.000036
 82,-0.00011065,-0.00006385,-0.00003596,0.00012230,0.00007095,-0.000055
 42,-0.00018634,-0.00006460,0.00010356,-0.00009104,-0.00003938,-0.00000
 934,0.00002029,-0.00001001,0.00003819,-0.00009408,-0.00007354,0.000014
 60,-0.00037796,-0.00009629,0.00021273,-0.00041146,0.00025516,0.0000665
 3,0.00064745,0.00018538,-0.00006963,0.00002890,0.00000763,0.00001373,-
 0.00002570,-0.00001965,0.00000155,0.00002214,0.00000686,0.00000881,0.0
 0000404,0.00000207,-0.00000278,-0.00003509,0.00003565,-0.00001694,0.00
 001763,0.00000364,0.00001251,0.00002596,-0.00001023,-0.00000739,-0.001
 62836,0.00102404,-0.00008067,0.00006729,-0.00072980,-0.00002602,0.0033
 4973,-0.00184861,0.00008554,-0.00003634,-0.00000408,-0.00001006,0.0000
 1757,0.00000219,0.00000418,0.00001670,-0.00000094,0.00000219,-0.000145
 74,-0.00010577,0.00022330,0.00018438,0.00008340,-0.00027037,0.00000406
 ,0.00002016,-0.00007596,-0.00027160,0.00031302,-0.00031973,0.00008219,
 -0.00034739,0.00016433,0.00014540,-0.00002423,0.00009845,-0.00004768,0
 .00001003,0.00000410,0.00001831,-0.00000172,0.00000406,0.00002095,-0.0
 0001415,-0.00000029,-0.00003840,-0.00005583,0.00001347,0.00001106,0.00
 002102,-0.00000304,0.00004089,0.00002976,-0.00001154,-0.00007595,-0.00
 007489,0.00004384,0.00001667,0.00001376,-0.00002022,0.00007247,0.00008
 967,-0.00003212,-0.00004180,0.00003735,-0.00002676,0.00004636,-0.00000
 773,0.00001253,0.00000670,-0.00001165,0.00000299,0.00003559,-0.0001825
 5,0.00012339,0.00003134,0.00006793,-0.00005905,-0.00000763,0.00007484,
 -0.00003558,-0.00039054,-0.00004924,0.00006812,0.00048391,-0.00006435,
 -0.00009174,0.00009588,0.00005271,0.00000662,0.00012003,-0.00046653,0.
 00046555,-0.00087801,0.00045403,-0.00072812,-0.00022580,0.00012461,-0.
 00002070,-0.00002604,-0.00006219,0.00003934,0.00001374,0.00000674,-0.0
 0001414,0.00001337,0.00002546,-0.00000506,-0.00005220,-0.00001373,0.00
 001043,0.00001672,0.00000144,0.00000062,0.00004495,0.00002536,-0.00001
 426,0.00015084,-0.00047498,0.00000976,-0.00008076,0.00021859,0.0000839
 7,0.00008266,0.00027156,-0.00007430,-0.00008720,0.00011067,-0.00006868
 ,0.00002963,-0.00002880,0.00003806,0.00003844,-0.00004904,0.00001150,-
 0.00904002,-0.03723047,0.04703104,0.00245595,-0.00609177,0.00537949,0.
 00541693,-0.00027667,0.00012967,0.00043610,0.00002541,0.00011092,-0.00
 008019,0.00001218,0.00000535,-0.00001659,-0.00006602,-0.00004567,0.000
 09736,0.00006464,-0.00000236,-0.00011790,0.00001211,-0.00017401,-0.000
 10390,0.00000819,-0.00000433,0.00001763,0.00003630,0.00004468,-0.00004
 854,0.00015668,0.00004088,-0.00026273,0.00017665,-0.00031108,-0.000006
 22,-0.00021654,-0.00010501,0.00008383,0.00000736,-0.00002666,0.0000255
 3,-0.00001896,0.00001473,-0.00003030,0.00001809,-0.00001151,0.00002759
 ,0.00000521,-0.00000379,0.00000858,0.00003387,0.00008446,-0.00003813,-
 0.00000713,-0.00001503,0.00001481,-0.00001271,-0.00003570,0.00002133,0
 .00053532,0.00225931,-0.00023238,-0.00039261,-0.00009083,0.00010850,-0
 .00155794,-0.00714452,0.00049794,-0.00002043,0.00003544,-0.00003637,0.
 00000792,-0.00002156,0.00001363,0.00000447,-0.00001569,0.00001434,-0.0
 0003195,-0.00005024,-0.00009991,0.00003888,0.00002281,0.00011473,0.000
 01773,0.00003993,0.00003252,0.00000420,0.00006252,-0.00016112,-0.00011
 363,-0.00011751,0.00017627,0.00004526,0.00000051,0.00005566,-0.0000012
 5,0.00006452,-0.00003176,0.00000782,-0.00002144,0.00000917,-0.00000437
 ,-0.00004141,0.00000211,-0.00003515,0.00003922,-0.00003853,0.00001294,
 -0.00001978,0.00001059,0.00003099,-0.00003610,0.00003159,-0.00000092,0
 .00000047,-0.00004250,-0.00000128,0.00000158,0.00001309,0.00000743,-0.
 00000146,0.00002824,0.00004180,0.00002436,-0.00004125,-0.00002200,-0.0
 0001111,0.00002358,-0.00001832,-0.00001478,0.00001524,-0.00004811,0.00
 002440,-0.00006434,0.00000562,-0.00001177,0.00002627,0.00002864,-0.000
 01913,0.00003463,-0.00045682,0.00058375,0.00031834,0.00063866,-0.00074
 962,-0.00031951,0.00006224,-0.00007715,-0.00014807,-0.00023723,-0.0000
 5632,-0.00030631,0.00031425,0.00029041,0.00023702,0.00005182,-0.000013
 47,0.00003864,-0.00001828,0.00000990,-0.00004093,0.00000601,-0.0000020
 7,0.00001621,0.00000888,-0.00000689,0.00002296,0.00000247,0.00000553,-
 0.00002963,0.00000076,-0.00000515,0.00001506,-0.00000272,-0.00000509,0
 .00001934,-0.00024217,0.00010373,-0.00004339,0.00014549,-0.00003729,-0
 .00003119,0.00007717,-0.00011770,0.00007946,0.00010858,0.00021091,-0.0
 0018954,0.00000530,-0.00006170,0.00006235,-0.00009803,-0.00016677,0.00
 003473,-0.04787776,-0.30518698,0.28035203,0.00371993,0.01354518,-0.022
 48247,0.04723071,0.29626496,-0.00041715,0.00044460,0.00048423,0.000162
 43,0.00016038,-0.00021953,-0.00001060,-0.00024075,-0.00003554,-0.00001
 578,0.00035900,0.00008912,0.00002674,-0.00013798,-0.00010373,0.0000143
 3,0.00004607,-0.00010153,0.00001397,-0.00000127,0.00001225,-0.00009425
 ,-0.00023746,-0.00001813,0.00029284,-0.00011981,-0.00031153,0.00010666
 ,-0.00049115,0.00006226,-0.00011022,0.00035576,-0.00010065,-0.00000419
 ,0.00001890,0.00003817,0.00000716,-0.00002194,-0.00001592,0.00000009,0
 .00001255,0.00001425,-0.00000472,0.00000401,0.00000382,0.00000544,-0.0
 0000803,-0.00008381,0.00001172,0.00003692,0.00003865,-0.00002114,-0.00
 000323,0.00004941,0.00021921,0.00163104,-0.00139747,-0.00018172,-0.000
 22638,0.00027381,-0.00059613,-0.00333090,0.00299719,0.00000531,-0.0000
 2567,-0.00003100,0.00000178,0.00000104,0.00002077,-0.00000253,0.000013
 77,0.00001197,0.00006018,-0.00015646,0.00012484,-0.00005188,0.00013484
 ,-0.00014961,-0.00005451,0.00002358,-0.00004277,-0.00025576,-0.0002099
 2,-0.00016485,0.00008361,0.00010896,0.00027055,0.00005845,0.00006359,0
 .00004422,0.00001132,0.00003514,-0.00007789,0.00000346,-0.00000476,0.0
 0002628,-0.00000406,-0.00002647,0.00002890,0.00002870,-0.00003910,-0.0
 0004465,-0.00000646,0.00000435,0.00002418,-0.00003260,0.00004190,0.000
 03029,-0.00000919,-0.00010767,0.00004650,-0.00000581,0.00002962,-0.000
 01180,0.00002268,0.00010701,-0.00003595,-0.00003872,-0.00003319,-0.000
 04029,0.00004476,0.00002667,0.00001087,0.00000788,0.00001727,0.0000187
 2,0.00008385,-0.00010405,0.00000009,-0.00001579,0.00003986,-0.00001164
 ,-0.00002878,0.00001708,0.00004129,-0.00023690,0.00042091,0.00004700,0
 .00033431,-0.00045711,-0.00004177,0.00002045,-0.00011935,-0.00005735,0
 .00045228,-0.00043585,0.00003964,-0.00063262,0.00026758,0.00010513,-0.
 00011321,0.00012462,0.00005472,0.00002426,-0.00005179,-0.00000444,-0.0
 0001369,0.00002067,-0.00000164,-0.00000782,0.00002277,0.00001568,-0.00
 001412,-0.00004803,0.00002705,0.00000200,0.00002323,-0.00000888,0.0000
 2010,0.00004284,-0.00002373,-0.00002907,0.00005246,-0.00021209,0.00008
 630,-0.00007847,0.00006579,-0.00002701,-0.00003098,0.00015262,0.000047
 26,0.00008932,-0.00022649,0.00002297,-0.00001039,0.00006939,-0.0000575
 3,-0.00012144,0.00007506,0.04752368,0.22441735,-0.28973109,0.00547401,
 0.03581254,-0.02975894,-0.05222932,-0.25805137,0.31832395\\0.00848052,
 -0.00428138,-0.02244865,-0.03842482,-0.00786867,0.02262708,0.01714509,
 0.00193824,-0.02544369,-0.05251234,-0.07258874,0.03940971,0.04336812,0
 .03767880,-0.02178478,0.00743935,-0.00825305,-0.00895178,-0.01169146,0
 .00006845,0.01498778,0.02422442,0.05585922,-0.01734473,-0.01290706,0.0
 0327609,0.01248913,-0.01293640,-0.05459245,-0.00574823,0.02950997,0.01
 430373,-0.00761964,-0.01373045,0.03104040,0.00894257,-0.02058697,-0.00
 179488,-0.01557240,0.00941181,-0.00509113,0.01834312,-0.00043945,0.007
 29043,-0.00412851,0.01855760,-0.00067548,0.00230304,-0.00029981,-0.003
 57229,-0.01160928,-0.01301513,-0.00041011,0.01336481,0.00450444,-0.004
 40904,0.00901416,0.00929014,0.00631287,0.00403817,-0.00380767,-0.00634
 123,-0.01629645,-0.00056482,-0.01000440,0.00015594,-0.00445051,0.00942
 559,0.00906431,0.02300682,0.00847253,-0.01136739,0.02132006,0.00536021
 ,-0.00792188,-0.00631193,-0.00428051,0.01563582,-0.01810117,-0.0023941
 3,-0.01440911,0.01302364,-0.02150375,-0.00563903,-0.00377960,0.0050084
 7,0.00468514,-0.00028521,0.00802155,0.00162838,-0.00458798,-0.00646224
 ,-0.00413012,-0.00940450,0.02261056,-0.00093585,0.01107915,-0.00058097
 ,0.01399139,-0.01558659,0.00415057,-0.01375686,-0.00058272,0.01050425,
 0.00976527,0.01061010,-0.01430131,0.00470610,0.01279953,0.01888535,-0.
 00473833,-0.00885372,0.00406334,-0.00515313,-0.00679343,-0.01907283,0.
 00479983,0.02202057,-0.01539658,0.00327183,-0.01118563,-0.00374554,-0.
 00255705,0.00775317,0.02804790,0.00232305,-0.00489207,-0.02076499,0.00
 054165,0.00641481,0.01145713,-0.01270325,-0.00683810,0.00349018,0.0098
 4449,-0.02255331,0.02077627,0.00935030,0.00968397,-0.00715356,-0.01168
 191,0.00069522,0.00370575,0.01412766,0.01550230,0.00194082,0.00020824,
 -0.00353365,-0.01528256,0.01061742,-0.01116281,0.01333857,-0.00509310,
 -0.00999393,-0.01417952,-0.00613848,0.01935905,0.00648121,-0.01752889,
 0.00164055,0.00839603,0.01168762,0.01467267,0.00987426,-0.01398576,0.0
 0270894,0.01324465,0.00558161,-0.01172727,-0.01942175,0.00746800,-0.01
 754265,-0.01344052,-0.00127561,0.00481515,-0.00389650,0.01298004,0.011
 76408,0.00917652,-0.00725868,0.00665302,-0.01090697,0.00027288,0.00270
 074,0.01346319,-0.00442668,-0.01014965,0.00412221,0.01600462,-0.004275
 46,0.00764530,0.00618393,0.00503394,-0.00660841,-0.01120210,0.00110952
 ,-0.01084793,0.00388257\\\@


 YOU ARE IN A MAZE OF TWISTY LITTLE PASSAGES.
 Job cpu time:       1 days  5 hours 40 minutes 57.6 seconds.
 Elapsed time:       0 days  0 hours 56 minutes 10.5 seconds.
 File lengths (MBytes):  RWF=   2997 Int=      0 D2E=      0 Chk=     34 Scr=      1
 Normal termination of Gaussian 16 at Fri Sep 16 20:28:46 2022.
