 Entering Gaussian System, Link 0=/shared/gaussian/g16.b01/AVX2/g16/g16
 Input=snap000.S0.com
 Output=snap000.S0.log
 Initial command:
 /shared/gaussian/g16.b01/AVX2/g16/l1.exe "/scratch/giacomo/Gauscr/Gau-10860.inp" -scrdir="/scratch/giacomo/Gauscr/"
 Entering Link 1 = /shared/gaussian/g16.b01/AVX2/g16/l1.exe PID=     10862.
  
 Copyright (c) 1988-2017, Gaussian, Inc.  All Rights Reserved.
  
 This is part of the Gaussian(R) 16 program.  It is based on
 the Gaussian(R) 09 system (copyright 2009, Gaussian, Inc.),
 the Gaussian(R) 03 system (copyright 2003, Gaussian, Inc.),
 the Gaussian(R) 98 system (copyright 1998, Gaussian, Inc.),
 the Gaussian(R) 94 system (copyright 1995, Gaussian, Inc.),
 the Gaussian 92(TM) system (copyright 1992, Gaussian, Inc.),
 the Gaussian 90(TM) system (copyright 1990, Gaussian, Inc.),
 the Gaussian 88(TM) system (copyright 1988, Gaussian, Inc.),
 the Gaussian 86(TM) system (copyright 1986, Carnegie Mellon
 University), and the Gaussian 82(TM) system (copyright 1983,
 Carnegie Mellon University). Gaussian is a federally registered
 trademark of Gaussian, Inc.
  
 This software contains proprietary and confidential information,
 including trade secrets, belonging to Gaussian, Inc.
  
 This software is provided under written license and may be
 used, copied, transmitted, or stored only in accord with that
 written license.
  
 The following legend is applicable only to US Government
 contracts under FAR:
  
                    RESTRICTED RIGHTS LEGEND
  
 Use, reproduction and disclosure by the US Government is
 subject to restrictions as set forth in subparagraphs (a)
 and (c) of the Commercial Computer Software - Restricted
 Rights clause in FAR 52.227-19.
  
 Gaussian, Inc.
 340 Quinnipiac St., Bldg. 40, Wallingford CT 06492
  
  
 ---------------------------------------------------------------
 Warning -- This program may not be used in any manner that
 competes with the business of Gaussian, Inc. or will provide
 assistance to any competitor of Gaussian, Inc.  The licensee
 of this program is prohibited from giving any competitor of
 Gaussian, Inc. access to this program.  By using this program,
 the user acknowledges that Gaussian, Inc. is engaged in the
 business of creating and licensing software in the field of
 computational chemistry and represents and warrants to the
 licensee that it is not a competitor of Gaussian, Inc. and that
 it will not use this program in any manner prohibited above.
 ---------------------------------------------------------------
  

 Cite this work as:
 Gaussian 16, Revision B.01,
 M. J. Frisch, G. W. Trucks, H. B. Schlegel, G. E. Scuseria, 
 M. A. Robb, J. R. Cheeseman, G. Scalmani, V. Barone, 
 G. A. Petersson, H. Nakatsuji, X. Li, M. Caricato, A. V. Marenich, 
 J. Bloino, B. G. Janesko, R. Gomperts, B. Mennucci, H. P. Hratchian, 
 J. V. Ortiz, A. F. Izmaylov, J. L. Sonnenberg, D. Williams-Young, 
 F. Ding, F. Lipparini, F. Egidi, J. Goings, B. Peng, A. Petrone, 
 T. Henderson, D. Ranasinghe, V. G. Zakrzewski, J. Gao, N. Rega, 
 G. Zheng, W. Liang, M. Hada, M. Ehara, K. Toyota, R. Fukuda, 
 J. Hasegawa, M. Ishida, T. Nakajima, Y. Honda, O. Kitao, H. Nakai, 
 T. Vreven, K. Throssell, J. A. Montgomery, Jr., J. E. Peralta, 
 F. Ogliaro, M. J. Bearpark, J. J. Heyd, E. N. Brothers, K. N. Kudin, 
 V. N. Staroverov, T. A. Keith, R. Kobayashi, J. Normand, 
 K. Raghavachari, A. P. Rendell, J. C. Burant, S. S. Iyengar, 
 J. Tomasi, M. Cossi, J. M. Millam, M. Klene, C. Adamo, R. Cammi, 
 J. W. Ochterski, R. L. Martin, K. Morokuma, O. Farkas, 
 J. B. Foresman, and D. J. Fox, Gaussian, Inc., Wallingford CT, 2016.
 
 ******************************************
 Gaussian 16:  ES64L-G16RevB.01 20-Dec-2017
                16-Sep-2022 
 ******************************************
 %Nproc=32
 Will use up to   32 processors via shared memory.
 %Mem=120Gb
 %chk=temp.chk
 -------------------------------------------
 #p cam-b3lyp/6-31+G(d,p) nosymm charge Freq
 -------------------------------------------
 1/10=4,18=10,28=-2,30=1,38=1,125=101/1,3;
 2/12=2,15=1,17=6,18=5,40=1/2;
 3/5=1,6=6,7=111,11=2,25=1,30=1,71=2,74=-40,140=1/1,2,3;
 4//1;
 5/5=2,38=5,98=1/2;
 8/6=4,10=90,11=11/1;
 11/6=1,8=1,9=11,15=111,16=1,31=1/1,2,10;
 10/6=1,31=1/2;
 6/7=2,8=2,9=2,10=2,28=1/1;
 7/8=1,10=1,16=-2,25=1,30=1/1,2,3,16;
 1/10=4,18=10,28=-2,30=1/3;
 99//99;
 Leave Link    1 at Fri Sep 16 17:04:37 2022, MaxMem= 16106127360 cpu:               1.9 elap:               0.2
 (Enter /shared/gaussian/g16.b01/AVX2/g16/l101.exe)
 ------------------------------------------
 Calculation for S0 with freq for abs spect
 ------------------------------------------
 Symbolic Z-matrix:
 Charge =  0 Multiplicity = 1
 C                     17.52595   15.46095   16.21595 
 C                     16.73595   17.28095   17.61595 
 C                     15.94595   17.80095   16.67595 
 C                     15.79595   17.08095   15.40595 
 N                     16.61595   15.96095   15.30595 
 H                     16.88595   17.66095   18.63595 
 H                     15.43595   18.71095   16.78595 
 O                     14.96595   17.38095   14.55595 
 O                     18.12595   14.38095   16.08595 
 N                     17.39595   16.12095   17.40595 
 H                     17.74595   15.56095   18.18595 
 H                     16.53595   15.37095   14.45595 
 O                     19.42618   18.32116   15.92614 
 H                     19.66341   19.2201   16.15383 
 H                     20.04489   17.77852   16.41499 
 O                     13.21597   14.2811   16.27582 
 H                     12.83677   14.67007   15.48769 
 H                     12.65479   13.52942   16.46632 
 O                     18.07625   16.08092   11.61605 
 H                     17.18328   16.40088   11.74438 
 H                     18.05389   15.64153   10.76595 
 O                     20.05609   17.57116   13.18628 
 H                     19.89669   17.46167   14.12374 
 H                     19.54298   16.87686   12.7729 
 O                     12.05606   18.2707   18.33585 
 H                     12.71302   17.75492   17.86829 
 H                     12.37719   19.171    18.28523 
 O                     15.36588   21.2813   14.54586 
 H                     16.01872   20.58851   14.64623 
 H                     15.86436   22.03789   14.23713 
 O                     15.14607   13.50107   18.14645 
 H                     14.43262   13.89213   17.64217 
 H                     15.09738   13.92787   19.00184 
 O                     14.42613   15.39052   20.28581 
 H                     14.74244   16.29338   20.31772 
 H                     13.5366   15.43534   20.63645 
 O                     17.66618   19.781    14.31611 
 H                     18.12403   20.58992   14.54471 
 H                     18.16422   19.09119   14.75469 
 O                     15.56573   16.5105   11.96621 
 H                     14.96586   17.02578   12.50554 
 H                     15.39952   15.60326   12.2222 
 O                     21.47589   16.8313   17.04579 
 H                     22.39509   16.96899   16.81703 
 H                     21.45782   15.96729   17.45735 
 O                     19.83556   14.46083   13.83617 
 H                     19.1505   14.21179   14.45658 
 H                     19.3876   14.512    12.99181 
 O                     15.49569   14.25099   13.13597 
 H                     16.28369   13.72885   12.98543 
 H                     14.77226   13.64234   12.98622 
 O                     19.35583   17.81046   20.02609 
 H                     20.15898   17.95425   20.5266 
 H                     19.0948   16.91548   20.24311 
 O                     16.03571   11.891    16.32652 
 H                     15.64984   12.1686   17.15735 
 H                     16.08583   12.69244   15.80553 
 O                     12.55554   17.76097   15.33619 
 H                     13.39198   17.80062   14.87248 
 H                     12.29649   16.84088   15.28563 
 O                     18.42589   15.22117   20.66608 
 H                     18.62718   14.41828   20.18538 
 H                     18.91565   15.14008   21.48448 
 O                     16.77587   19.1911   11.49548 
 H                     17.20587   19.17876   12.35057 
 H                     16.07728   18.54084   11.56876 
 O                     17.85579   13.18018   18.94586 
 H                     18.17644   12.28928   19.08629 
 H                     16.99803   13.06485   18.53699 
 O                     20.32565   12.76098   17.29574 
 H                     20.06949   12.11678   16.63572 
 H                     19.64721   13.43464   17.24957 
 O                     20.04585   20.22081   18.116 
 H                     19.58689   19.49262   18.53471 
 H                     20.62659   20.56147   18.79639 
 
 ITRead=  0  0  0  0  0  0  0  0  0  0  0  0  0  0  0  0  0  0  0  0
 ITRead=  0  0  0  0  0  0  0  0  0  0  0  0  0  0  0  0  0  0  0  0
 ITRead=  0  0  0  0  0  0  0  0  0  0  0  0  0  0  0  0  0  0  0  0
 ITRead=  0  0  0  0  0  0  0  0  0  0  0  0  0  0  0
 MicOpt= -1 -1 -1 -1 -1 -1 -1 -1 -1 -1 -1 -1 -1 -1 -1 -1 -1 -1 -1 -1
 MicOpt= -1 -1 -1 -1 -1 -1 -1 -1 -1 -1 -1 -1 -1 -1 -1 -1 -1 -1 -1 -1
 MicOpt= -1 -1 -1 -1 -1 -1 -1 -1 -1 -1 -1 -1 -1 -1 -1 -1 -1 -1 -1 -1
 MicOpt= -1 -1 -1 -1 -1 -1 -1 -1 -1 -1 -1 -1 -1 -1 -1
 NAtoms=     75 NQM=       75 NQMF=       0 NMMI=      0 NMMIF=      0
                NMic=       0 NMicF=      0.
                    Isotopes and Nuclear Properties:
 (Nuclear quadrupole moments (NQMom) in fm**2, nuclear magnetic moments (NMagM)
  in nuclear magnetons)

  Atom         1           2           3           4           5           6           7           8           9          10
 IAtWgt=          12          12          12          12          14           1           1          16          16          14
 AtmWgt=  12.0000000  12.0000000  12.0000000  12.0000000  14.0030740   1.0078250   1.0078250  15.9949146  15.9949146  14.0030740
 NucSpn=           0           0           0           0           2           1           1           0           0           2
 AtZEff=  -0.0000000  -0.0000000  -0.0000000  -0.0000000  -0.0000000  -0.0000000  -0.0000000  -0.0000000  -0.0000000  -0.0000000
 NQMom=    0.0000000   0.0000000   0.0000000   0.0000000   2.0440000   0.0000000   0.0000000   0.0000000   0.0000000   2.0440000
 NMagM=    0.0000000   0.0000000   0.0000000   0.0000000   0.4037610   2.7928460   2.7928460   0.0000000   0.0000000   0.4037610
 AtZNuc=   6.0000000   6.0000000   6.0000000   6.0000000   7.0000000   1.0000000   1.0000000   8.0000000   8.0000000   7.0000000

  Atom        11          12          13          14          15          16          17          18          19          20
 IAtWgt=           1           1          16           1           1          16           1           1          16           1
 AtmWgt=   1.0078250   1.0078250  15.9949146   1.0078250   1.0078250  15.9949146   1.0078250   1.0078250  15.9949146   1.0078250
 NucSpn=           1           1           0           1           1           0           1           1           0           1
 AtZEff=  -0.0000000  -0.0000000  -0.0000000  -0.0000000  -0.0000000  -0.0000000  -0.0000000  -0.0000000  -0.0000000  -0.0000000
 NQMom=    0.0000000   0.0000000   0.0000000   0.0000000   0.0000000   0.0000000   0.0000000   0.0000000   0.0000000   0.0000000
 NMagM=    2.7928460   2.7928460   0.0000000   2.7928460   2.7928460   0.0000000   2.7928460   2.7928460   0.0000000   2.7928460
 AtZNuc=   1.0000000   1.0000000   8.0000000   1.0000000   1.0000000   8.0000000   1.0000000   1.0000000   8.0000000   1.0000000

  Atom        21          22          23          24          25          26          27          28          29          30
 IAtWgt=           1          16           1           1          16           1           1          16           1           1
 AtmWgt=   1.0078250  15.9949146   1.0078250   1.0078250  15.9949146   1.0078250   1.0078250  15.9949146   1.0078250   1.0078250
 NucSpn=           1           0           1           1           0           1           1           0           1           1
 AtZEff=  -0.0000000  -0.0000000  -0.0000000  -0.0000000  -0.0000000  -0.0000000  -0.0000000  -0.0000000  -0.0000000  -0.0000000
 NQMom=    0.0000000   0.0000000   0.0000000   0.0000000   0.0000000   0.0000000   0.0000000   0.0000000   0.0000000   0.0000000
 NMagM=    2.7928460   0.0000000   2.7928460   2.7928460   0.0000000   2.7928460   2.7928460   0.0000000   2.7928460   2.7928460
 AtZNuc=   1.0000000   8.0000000   1.0000000   1.0000000   8.0000000   1.0000000   1.0000000   8.0000000   1.0000000   1.0000000

  Atom        31          32          33          34          35          36          37          38          39          40
 IAtWgt=          16           1           1          16           1           1          16           1           1          16
 AtmWgt=  15.9949146   1.0078250   1.0078250  15.9949146   1.0078250   1.0078250  15.9949146   1.0078250   1.0078250  15.9949146
 NucSpn=           0           1           1           0           1           1           0           1           1           0
 AtZEff=  -0.0000000  -0.0000000  -0.0000000  -0.0000000  -0.0000000  -0.0000000  -0.0000000  -0.0000000  -0.0000000  -0.0000000
 NQMom=    0.0000000   0.0000000   0.0000000   0.0000000   0.0000000   0.0000000   0.0000000   0.0000000   0.0000000   0.0000000
 NMagM=    0.0000000   2.7928460   2.7928460   0.0000000   2.7928460   2.7928460   0.0000000   2.7928460   2.7928460   0.0000000
 AtZNuc=   8.0000000   1.0000000   1.0000000   8.0000000   1.0000000   1.0000000   8.0000000   1.0000000   1.0000000   8.0000000

  Atom        41          42          43          44          45          46          47          48          49          50
 IAtWgt=           1           1          16           1           1          16           1           1          16           1
 AtmWgt=   1.0078250   1.0078250  15.9949146   1.0078250   1.0078250  15.9949146   1.0078250   1.0078250  15.9949146   1.0078250
 NucSpn=           1           1           0           1           1           0           1           1           0           1
 AtZEff=  -0.0000000  -0.0000000  -0.0000000  -0.0000000  -0.0000000  -0.0000000  -0.0000000  -0.0000000  -0.0000000  -0.0000000
 NQMom=    0.0000000   0.0000000   0.0000000   0.0000000   0.0000000   0.0000000   0.0000000   0.0000000   0.0000000   0.0000000
 NMagM=    2.7928460   2.7928460   0.0000000   2.7928460   2.7928460   0.0000000   2.7928460   2.7928460   0.0000000   2.7928460
 AtZNuc=   1.0000000   1.0000000   8.0000000   1.0000000   1.0000000   8.0000000   1.0000000   1.0000000   8.0000000   1.0000000

  Atom        51          52          53          54          55          56          57          58          59          60
 IAtWgt=           1          16           1           1          16           1           1          16           1           1
 AtmWgt=   1.0078250  15.9949146   1.0078250   1.0078250  15.9949146   1.0078250   1.0078250  15.9949146   1.0078250   1.0078250
 NucSpn=           1           0           1           1           0           1           1           0           1           1
 AtZEff=  -0.0000000  -0.0000000  -0.0000000  -0.0000000  -0.0000000  -0.0000000  -0.0000000  -0.0000000  -0.0000000  -0.0000000
 NQMom=    0.0000000   0.0000000   0.0000000   0.0000000   0.0000000   0.0000000   0.0000000   0.0000000   0.0000000   0.0000000
 NMagM=    2.7928460   0.0000000   2.7928460   2.7928460   0.0000000   2.7928460   2.7928460   0.0000000   2.7928460   2.7928460
 AtZNuc=   1.0000000   8.0000000   1.0000000   1.0000000   8.0000000   1.0000000   1.0000000   8.0000000   1.0000000   1.0000000

  Atom        61          62          63          64          65          66          67          68          69          70
 IAtWgt=          16           1           1          16           1           1          16           1           1          16
 AtmWgt=  15.9949146   1.0078250   1.0078250  15.9949146   1.0078250   1.0078250  15.9949146   1.0078250   1.0078250  15.9949146
 NucSpn=           0           1           1           0           1           1           0           1           1           0
 AtZEff=  -0.0000000  -0.0000000  -0.0000000  -0.0000000  -0.0000000  -0.0000000  -0.0000000  -0.0000000  -0.0000000  -0.0000000
 NQMom=    0.0000000   0.0000000   0.0000000   0.0000000   0.0000000   0.0000000   0.0000000   0.0000000   0.0000000   0.0000000
 NMagM=    0.0000000   2.7928460   2.7928460   0.0000000   2.7928460   2.7928460   0.0000000   2.7928460   2.7928460   0.0000000
 AtZNuc=   8.0000000   1.0000000   1.0000000   8.0000000   1.0000000   1.0000000   8.0000000   1.0000000   1.0000000   8.0000000

  Atom        71          72          73          74          75
 IAtWgt=           1           1          16           1           1
 AtmWgt=   1.0078250   1.0078250  15.9949146   1.0078250   1.0078250
 NucSpn=           1           1           0           1           1
 AtZEff=  -0.0000000  -0.0000000  -0.0000000  -0.0000000  -0.0000000
 NQMom=    0.0000000   0.0000000   0.0000000   0.0000000   0.0000000
 NMagM=    2.7928460   2.7928460   0.0000000   2.7928460   2.7928460
 AtZNuc=   1.0000000   1.0000000   8.0000000   1.0000000   1.0000000
 Background charge distribution read from input stream:
 Point Charges:
 XYZ=   14.2761    5.3110   15.5562 Q=   -0.8340 A=    0.0000 R=    0.0000 C=    0.0000
 XYZ=   13.6128    4.6375   15.4058 Q=    0.4170 A=    0.0000 R=    0.0000 C=    0.0000
 XYZ=   14.2965    5.8139   14.7420 Q=    0.4170 A=    0.0000 R=    0.0000 C=    0.0000
 XYZ=   18.1958    9.6511    7.5665 Q=   -0.8340 A=    0.0000 R=    0.0000 C=    0.0000
 XYZ=   19.1247    9.6000    7.7918 Q=    0.4170 A=    0.0000 R=    0.0000 C=    0.0000
 XYZ=   18.1596    9.4092    6.6411 Q=    0.4170 A=    0.0000 R=    0.0000 C=    0.0000
 XYZ=   21.7357   19.7305   26.8957 Q=   -0.8340 A=    0.0000 R=    0.0000 C=    0.0000
 XYZ=   22.4408   20.1829   27.3587 Q=    0.4170 A=    0.0000 R=    0.0000 C=    0.0000
 XYZ=   22.0949   18.8657   26.6974 Q=    0.4170 A=    0.0000 R=    0.0000 C=    0.0000
 XYZ=   12.7564    5.8706    9.3960 Q=   -0.8340 A=    0.0000 R=    0.0000 C=    0.0000
 XYZ=   13.6016    5.8729    8.9468 Q=    0.4170 A=    0.0000 R=    0.0000 C=    0.0000
 XYZ=   12.7837    5.0940    9.9549 Q=    0.4170 A=    0.0000 R=    0.0000 C=    0.0000
 XYZ=    8.5760   20.5611   17.0359 Q=   -0.8340 A=    0.0000 R=    0.0000 C=    0.0000
 XYZ=    8.5441   20.0504   17.8449 Q=    0.4170 A=    0.0000 R=    0.0000 C=    0.0000
 XYZ=    7.7765   20.3199   16.5682 Q=    0.4170 A=    0.0000 R=    0.0000 C=    0.0000
 XYZ=    3.7362   16.9304    8.7457 Q=   -0.8340 A=    0.0000 R=    0.0000 C=    0.0000
 XYZ=    3.8243   17.7270    9.2692 Q=    0.4170 A=    0.0000 R=    0.0000 C=    0.0000
 XYZ=    2.8237   16.9330    8.4565 Q=    0.4170 A=    0.0000 R=    0.0000 C=    0.0000
 XYZ=    2.3655   15.8108   20.1561 Q=   -0.8340 A=    0.0000 R=    0.0000 C=    0.0000
 XYZ=    2.1893   15.2242   20.8917 Q=    0.4170 A=    0.0000 R=    0.0000 C=    0.0000
 XYZ=    3.3200   15.8296   20.0874 Q=    0.4170 A=    0.0000 R=    0.0000 C=    0.0000
 XYZ=    3.2359   13.8808   22.6863 Q=   -0.8340 A=    0.0000 R=    0.0000 C=    0.0000
 XYZ=    3.7162   13.3100   22.0865 Q=    0.4170 A=    0.0000 R=    0.0000 C=    0.0000
 XYZ=    3.2067   13.3936   23.5097 Q=    0.4170 A=    0.0000 R=    0.0000 C=    0.0000
 XYZ=   12.1061   29.8109   19.0161 Q=   -0.8340 A=    0.0000 R=    0.0000 C=    0.0000
 XYZ=   11.5182   29.0825   19.2163 Q=    0.4170 A=    0.0000 R=    0.0000 C=    0.0000
 XYZ=   12.8312   29.7105   19.6329 Q=    0.4170 A=    0.0000 R=    0.0000 C=    0.0000
 XYZ=   20.3157   25.6611   25.9657 Q=   -0.8340 A=    0.0000 R=    0.0000 C=    0.0000
 XYZ=   19.6188   26.1414   25.5186 Q=    0.4170 A=    0.0000 R=    0.0000 C=    0.0000
 XYZ=   20.2477   24.7685   25.6267 Q=    0.4170 A=    0.0000 R=    0.0000 C=    0.0000
 XYZ=   21.5462   15.7110    8.5757 Q=   -0.8340 A=    0.0000 R=    0.0000 C=    0.0000
 XYZ=   21.4239   16.2198    9.3772 Q=    0.4170 A=    0.0000 R=    0.0000 C=    0.0000
 XYZ=   20.8741   15.0308    8.6183 Q=    0.4170 A=    0.0000 R=    0.0000 C=    0.0000
 XYZ=   23.5460   17.5816   10.9962 Q=   -0.8340 A=    0.0000 R=    0.0000 C=    0.0000
 XYZ=   23.9444   16.7352   10.7932 Q=    0.4170 A=    0.0000 R=    0.0000 C=    0.0000
 XYZ=   22.6474   17.5070   10.6749 Q=    0.4170 A=    0.0000 R=    0.0000 C=    0.0000
 XYZ=   13.7360   10.8011   18.4259 Q=   -0.8340 A=    0.0000 R=    0.0000 C=    0.0000
 XYZ=   13.5753   10.0083   18.9376 Q=    0.4170 A=    0.0000 R=    0.0000 C=    0.0000
 XYZ=   14.4253   11.2606   18.9054 Q=    0.4170 A=    0.0000 R=    0.0000 C=    0.0000
 XYZ=    4.6858   17.7205   11.7964 Q=   -0.8340 A=    0.0000 R=    0.0000 C=    0.0000
 XYZ=    4.3565   18.4814   12.2748 Q=    0.4170 A=    0.0000 R=    0.0000 C=    0.0000
 XYZ=    4.4983   16.9772   12.3696 Q=    0.4170 A=    0.0000 R=    0.0000 C=    0.0000
 XYZ=   18.4560   19.1210    6.4964 Q=   -0.8340 A=    0.0000 R=    0.0000 C=    0.0000
 XYZ=   18.7262   19.4014    7.3708 Q=    0.4170 A=    0.0000 R=    0.0000 C=    0.0000
 XYZ=   17.8349   18.4098    6.6537 Q=    0.4170 A=    0.0000 R=    0.0000 C=    0.0000
 XYZ=   26.2660   14.7808   13.9457 Q=   -0.8340 A=    0.0000 R=    0.0000 C=    0.0000
 XYZ=   26.0741   14.2725   13.1576 Q=    0.4170 A=    0.0000 R=    0.0000 C=    0.0000
 XYZ=   27.2077   14.6721   14.0781 Q=    0.4170 A=    0.0000 R=    0.0000 C=    0.0000
 XYZ=   22.3154   12.5609   14.5360 Q=   -0.8340 A=    0.0000 R=    0.0000 C=    0.0000
 XYZ=   22.6975   13.3736   14.2048 Q=    0.4170 A=    0.0000 R=    0.0000 C=    0.0000
 XYZ=   21.3733   12.7293   14.5559 Q=    0.4170 A=    0.0000 R=    0.0000 C=    0.0000
 XYZ=   26.7855   16.7605    9.3462 Q=   -0.8340 A=    0.0000 R=    0.0000 C=    0.0000
 XYZ=   26.0187   16.3471    9.7429 Q=    0.4170 A=    0.0000 R=    0.0000 C=    0.0000
 XYZ=   27.4603   16.0818    9.3642 Q=    0.4170 A=    0.0000 R=    0.0000 C=    0.0000
 XYZ=   19.3360    3.4712   13.0760 Q=   -0.8340 A=    0.0000 R=    0.0000 C=    0.0000
 XYZ=   18.8132    4.2591   13.2252 Q=    0.4170 A=    0.0000 R=    0.0000 C=    0.0000
 XYZ=   20.2383    3.7482   13.2355 Q=    0.4170 A=    0.0000 R=    0.0000 C=    0.0000
 XYZ=   15.1360    4.4410   22.6565 Q=   -0.8340 A=    0.0000 R=    0.0000 C=    0.0000
 XYZ=   14.7564    4.0908   21.8506 Q=    0.4170 A=    0.0000 R=    0.0000 C=    0.0000
 XYZ=   15.8849    4.9600   22.3632 Q=    0.4170 A=    0.0000 R=    0.0000 C=    0.0000
 XYZ=   25.4357    7.2713   15.7258 Q=   -0.8340 A=    0.0000 R=    0.0000 C=    0.0000
 XYZ=   25.8291    7.9493   15.1765 Q=    0.4170 A=    0.0000 R=    0.0000 C=    0.0000
 XYZ=   24.5063    7.4978   15.7580 Q=    0.4170 A=    0.0000 R=    0.0000 C=    0.0000
 XYZ=   14.1760   20.4008   19.4559 Q=   -0.8340 A=    0.0000 R=    0.0000 C=    0.0000
 XYZ=   13.9364   21.0295   20.1368 Q=    0.4170 A=    0.0000 R=    0.0000 C=    0.0000
 XYZ=   14.4348   19.6142   19.9359 Q=    0.4170 A=    0.0000 R=    0.0000 C=    0.0000
 XYZ=   24.0860   13.3810   26.9658 Q=   -0.8340 A=    0.0000 R=    0.0000 C=    0.0000
 XYZ=   24.4967   14.2222   27.1656 Q=    0.4170 A=    0.0000 R=    0.0000 C=    0.0000
 XYZ=   23.7548   13.0695   27.8082 Q=    0.4170 A=    0.0000 R=    0.0000 C=    0.0000
 XYZ=    7.2763   18.1501    6.0962 Q=   -0.8340 A=    0.0000 R=    0.0000 C=    0.0000
 XYZ=    6.6441   18.6276    6.6334 Q=    0.4170 A=    0.0000 R=    0.0000 C=    0.0000
 XYZ=    7.4627   18.7386    5.3647 Q=    0.4170 A=    0.0000 R=    0.0000 C=    0.0000
 XYZ=   18.6362   21.3316   29.2556 Q=   -0.8340 A=    0.0000 R=    0.0000 C=    0.0000
 XYZ=   18.2826   20.4425   29.2279 Q=    0.4170 A=    0.0000 R=    0.0000 C=    0.0000
 XYZ=   18.7153   21.5294   30.1888 Q=    0.4170 A=    0.0000 R=    0.0000 C=    0.0000
 XYZ=   16.9755   10.6210   27.1558 Q=   -0.8340 A=    0.0000 R=    0.0000 C=    0.0000
 XYZ=   16.7374   11.0594   26.3389 Q=    0.4170 A=    0.0000 R=    0.0000 C=    0.0000
 XYZ=   17.9309   10.6715   27.1856 Q=    0.4170 A=    0.0000 R=    0.0000 C=    0.0000
 XYZ=   15.2958   18.9008   27.6160 Q=   -0.8340 A=    0.0000 R=    0.0000 C=    0.0000
 XYZ=   14.7457   18.1517   27.8448 Q=    0.4170 A=    0.0000 R=    0.0000 C=    0.0000
 XYZ=   15.9680   18.9219   28.2971 Q=    0.4170 A=    0.0000 R=    0.0000 C=    0.0000
 XYZ=   24.9758   10.2007   27.0159 Q=   -0.8340 A=    0.0000 R=    0.0000 C=    0.0000
 XYZ=   24.3966   10.6001   27.6650 Q=    0.4170 A=    0.0000 R=    0.0000 C=    0.0000
 XYZ=   24.5978    9.3358   26.8570 Q=    0.4170 A=    0.0000 R=    0.0000 C=    0.0000
 XYZ=   24.8161   23.2908   12.0363 Q=   -0.8340 A=    0.0000 R=    0.0000 C=    0.0000
 XYZ=   25.0642   23.5291   12.9296 Q=    0.4170 A=    0.0000 R=    0.0000 C=    0.0000
 XYZ=   25.0053   22.3544   11.9763 Q=    0.4170 A=    0.0000 R=    0.0000 C=    0.0000
 XYZ=   19.5058    9.4017   17.1253 Q=   -0.8340 A=    0.0000 R=    0.0000 C=    0.0000
 XYZ=   19.0571   10.2048   17.3899 Q=    0.4170 A=    0.0000 R=    0.0000 C=    0.0000
 XYZ=   19.7765    9.5646   16.2218 Q=    0.4170 A=    0.0000 R=    0.0000 C=    0.0000
 XYZ=   21.2255   21.0715   11.8760 Q=   -0.8340 A=    0.0000 R=    0.0000 C=    0.0000
 XYZ=   20.9262   20.8100   12.7468 Q=    0.4170 A=    0.0000 R=    0.0000 C=    0.0000
 XYZ=   21.8524   20.3934   11.6241 Q=    0.4170 A=    0.0000 R=    0.0000 C=    0.0000
 XYZ=    8.9052   15.3704   10.2555 Q=   -0.8340 A=    0.0000 R=    0.0000 C=    0.0000
 XYZ=    9.1024   14.7237    9.5780 Q=    0.4170 A=    0.0000 R=    0.0000 C=    0.0000
 XYZ=    7.9520   15.3460   10.3404 Q=    0.4170 A=    0.0000 R=    0.0000 C=    0.0000
 XYZ=   20.6561   13.3810   20.2961 Q=   -0.8340 A=    0.0000 R=    0.0000 C=    0.0000
 XYZ=   20.6945   12.4627   20.5634 Q=    0.4170 A=    0.0000 R=    0.0000 C=    0.0000
 XYZ=   20.1156   13.3786   19.5061 Q=    0.4170 A=    0.0000 R=    0.0000 C=    0.0000
 XYZ=   14.5357   21.3310   26.1663 Q=   -0.8340 A=    0.0000 R=    0.0000 C=    0.0000
 XYZ=   14.5275   20.5200   26.6745 Q=    0.4170 A=    0.0000 R=    0.0000 C=    0.0000
 XYZ=   13.9089   21.9003   26.6126 Q=    0.4170 A=    0.0000 R=    0.0000 C=    0.0000
 XYZ=    9.2361    3.7810   17.8958 Q=   -0.8340 A=    0.0000 R=    0.0000 C=    0.0000
 XYZ=    8.9350    2.8906   18.0769 Q=    0.4170 A=    0.0000 R=    0.0000 C=    0.0000
 XYZ=    8.7345    4.3310   18.4975 Q=    0.4170 A=    0.0000 R=    0.0000 C=    0.0000
 XYZ=    8.5061   10.2011   22.9360 Q=   -0.8340 A=    0.0000 R=    0.0000 C=    0.0000
 XYZ=    8.8765   11.0801   22.8565 Q=    0.4170 A=    0.0000 R=    0.0000 C=    0.0000
 XYZ=    7.6534   10.2601   22.5050 Q=    0.4170 A=    0.0000 R=    0.0000 C=    0.0000
 XYZ=   22.0065   20.8210   15.1061 Q=   -0.8340 A=    0.0000 R=    0.0000 C=    0.0000
 XYZ=   22.9526   20.8208   14.9607 Q=    0.4170 A=    0.0000 R=    0.0000 C=    0.0000
 XYZ=   21.9100   20.8510   16.0580 Q=    0.4170 A=    0.0000 R=    0.0000 C=    0.0000
 XYZ=   16.5860   29.9107   16.5358 Q=   -0.8340 A=    0.0000 R=    0.0000 C=    0.0000
 XYZ=   16.5250   30.7037   17.0684 Q=    0.4170 A=    0.0000 R=    0.0000 C=    0.0000
 XYZ=   15.8358   29.3815   16.8065 Q=    0.4170 A=    0.0000 R=    0.0000 C=    0.0000
 XYZ=   19.4060   14.9207   23.1360 Q=   -0.8340 A=    0.0000 R=    0.0000 C=    0.0000
 XYZ=   19.7062   14.0434   23.3740 Q=    0.4170 A=    0.0000 R=    0.0000 C=    0.0000
 XYZ=   18.7242   15.1229   23.7766 Q=    0.4170 A=    0.0000 R=    0.0000 C=    0.0000
 XYZ=   21.1959   29.2607   19.0656 Q=   -0.8340 A=    0.0000 R=    0.0000 C=    0.0000
 XYZ=   22.0665   29.2622   18.6678 Q=    0.4170 A=    0.0000 R=    0.0000 C=    0.0000
 XYZ=   20.6561   28.7532   18.4596 Q=    0.4170 A=    0.0000 R=    0.0000 C=    0.0000
 XYZ=   16.0461   25.0109    7.4459 Q=   -0.8340 A=    0.0000 R=    0.0000 C=    0.0000
 XYZ=   16.8150   24.4417    7.4758 Q=    0.4170 A=    0.0000 R=    0.0000 C=    0.0000
 XYZ=   15.6253   24.8908    8.2972 Q=    0.4170 A=    0.0000 R=    0.0000 C=    0.0000
 XYZ=    6.8157   21.1409   11.5158 Q=   -0.8340 A=    0.0000 R=    0.0000 C=    0.0000
 XYZ=    6.9879   20.2029   11.5972 Q=    0.4170 A=    0.0000 R=    0.0000 C=    0.0000
 XYZ=    7.5485   21.5595   11.9674 Q=    0.4170 A=    0.0000 R=    0.0000 C=    0.0000
 XYZ=    7.8562   12.8409   11.8057 Q=   -0.8340 A=    0.0000 R=    0.0000 C=    0.0000
 XYZ=    8.4248   12.3609   12.4078 Q=    0.4170 A=    0.0000 R=    0.0000 C=    0.0000
 XYZ=    8.3525   12.8818   10.9882 Q=    0.4170 A=    0.0000 R=    0.0000 C=    0.0000
 XYZ=   13.7962    8.7111   28.3757 Q=   -0.8340 A=    0.0000 R=    0.0000 C=    0.0000
 XYZ=   14.5822    9.0194   28.8266 Q=    0.4170 A=    0.0000 R=    0.0000 C=    0.0000
 XYZ=   13.2062    8.4409   29.0794 Q=    0.4170 A=    0.0000 R=    0.0000 C=    0.0000
 XYZ=    9.3158   17.3307   17.7358 Q=   -0.8340 A=    0.0000 R=    0.0000 C=    0.0000
 XYZ=    9.9572   17.9826   18.0184 Q=    0.4170 A=    0.0000 R=    0.0000 C=    0.0000
 XYZ=    8.8475   17.0923   18.5359 Q=    0.4170 A=    0.0000 R=    0.0000 C=    0.0000
 XYZ=   19.3658   25.0904   18.0361 Q=   -0.8340 A=    0.0000 R=    0.0000 C=    0.0000
 XYZ=   18.7549   25.6737   18.4864 Q=    0.4170 A=    0.0000 R=    0.0000 C=    0.0000
 XYZ=   19.1487   24.2172   18.3625 Q=    0.4170 A=    0.0000 R=    0.0000 C=    0.0000
 XYZ=   15.6458    5.6212    8.4266 Q=   -0.8340 A=    0.0000 R=    0.0000 C=    0.0000
 XYZ=   16.2945    5.0313    8.8105 Q=    0.4170 A=    0.0000 R=    0.0000 C=    0.0000
 XYZ=   15.6592    5.4167    7.4916 Q=    0.4170 A=    0.0000 R=    0.0000 C=    0.0000
 XYZ=   25.4661    9.4011    6.5855 Q=   -0.8340 A=    0.0000 R=    0.0000 C=    0.0000
 XYZ=   24.5125    9.3903    6.6679 Q=    0.4170 A=    0.0000 R=    0.0000 C=    0.0000
 XYZ=   25.6269    9.7291    5.7008 Q=    0.4170 A=    0.0000 R=    0.0000 C=    0.0000
 XYZ=    4.0559   19.4805    9.5164 Q=   -0.8340 A=    0.0000 R=    0.0000 C=    0.0000
 XYZ=    3.7283   19.2313   10.3806 Q=    0.4170 A=    0.0000 R=    0.0000 C=    0.0000
 XYZ=    3.8347   20.4081    9.4342 Q=    0.4170 A=    0.0000 R=    0.0000 C=    0.0000
 XYZ=    9.4862   28.8805   21.1359 Q=   -0.8340 A=    0.0000 R=    0.0000 C=    0.0000
 XYZ=    9.6445   28.5339   20.2578 Q=    0.4170 A=    0.0000 R=    0.0000 C=    0.0000
 XYZ=    9.8237   28.2055   21.7248 Q=    0.4170 A=    0.0000 R=    0.0000 C=    0.0000
 XYZ=   21.7462   24.8909   16.6460 Q=   -0.8340 A=    0.0000 R=    0.0000 C=    0.0000
 XYZ=   21.0939   25.3224   17.1980 Q=    0.4170 A=    0.0000 R=    0.0000 C=    0.0000
 XYZ=   21.3349   24.8407   15.7831 Q=    0.4170 A=    0.0000 R=    0.0000 C=    0.0000
 XYZ=   19.0663   28.2308   17.3560 Q=   -0.8340 A=    0.0000 R=    0.0000 C=    0.0000
 XYZ=   18.5124   28.8824   16.9260 Q=    0.4170 A=    0.0000 R=    0.0000 C=    0.0000
 XYZ=   18.5038   27.8421   18.0258 Q=    0.4170 A=    0.0000 R=    0.0000 C=    0.0000
 XYZ=   11.0961   14.8210   11.6959 Q=   -0.8340 A=    0.0000 R=    0.0000 C=    0.0000
 XYZ=   11.5945   15.1903   10.9669 Q=    0.4170 A=    0.0000 R=    0.0000 C=    0.0000
 XYZ=   10.1952   14.7812   11.3750 Q=    0.4170 A=    0.0000 R=    0.0000 C=    0.0000
 XYZ=   17.0058   31.5906   18.7063 Q=   -0.8340 A=    0.0000 R=    0.0000 C=    0.0000
 XYZ=   17.8190   31.9719   18.3753 Q=    0.4170 A=    0.0000 R=    0.0000 C=    0.0000
 XYZ=   17.2845   31.0054   19.4107 Q=    0.4170 A=    0.0000 R=    0.0000 C=    0.0000
 XYZ=   17.1258   23.6811   11.8864 Q=   -0.8340 A=    0.0000 R=    0.0000 C=    0.0000
 XYZ=   17.7290   24.3718   11.6120 Q=    0.4170 A=    0.0000 R=    0.0000 C=    0.0000
 XYZ=   16.7754   23.9869   12.7230 Q=    0.4170 A=    0.0000 R=    0.0000 C=    0.0000
 XYZ=    6.0359   24.4310   21.3962 Q=   -0.8340 A=    0.0000 R=    0.0000 C=    0.0000
 XYZ=    6.6173   24.1401   20.6936 Q=    0.4170 A=    0.0000 R=    0.0000 C=    0.0000
 XYZ=    5.1947   24.5811   20.9649 Q=    0.4170 A=    0.0000 R=    0.0000 C=    0.0000
 XYZ=    9.9662   27.7009   13.1360 Q=   -0.8340 A=    0.0000 R=    0.0000 C=    0.0000
 XYZ=   10.6930   27.1017   12.9660 Q=    0.4170 A=    0.0000 R=    0.0000 C=    0.0000
 XYZ=   10.3842   28.5005   13.4557 Q=    0.4170 A=    0.0000 R=    0.0000 C=    0.0000
 XYZ=   10.0360    8.8909   18.1657 Q=   -0.8340 A=    0.0000 R=    0.0000 C=    0.0000
 XYZ=   10.4049    8.1831   17.6373 Q=    0.4170 A=    0.0000 R=    0.0000 C=    0.0000
 XYZ=    9.8655    8.4901   19.0181 Q=    0.4170 A=    0.0000 R=    0.0000 C=    0.0000
 XYZ=   14.8159   19.1409    5.9157 Q=   -0.8340 A=    0.0000 R=    0.0000 C=    0.0000
 XYZ=   14.1353   18.6505    6.3768 Q=    0.4170 A=    0.0000 R=    0.0000 C=    0.0000
 XYZ=   15.2975   19.5925    6.6088 Q=    0.4170 A=    0.0000 R=    0.0000 C=    0.0000
 XYZ=   26.8061   23.9310    9.1664 Q=   -0.8340 A=    0.0000 R=    0.0000 C=    0.0000
 XYZ=   26.9343   23.2982    9.8730 Q=    0.4170 A=    0.0000 R=    0.0000 C=    0.0000
 XYZ=   27.1051   24.7633    9.5324 Q=    0.4170 A=    0.0000 R=    0.0000 C=    0.0000
 XYZ=   16.3754    4.4604   13.3557 Q=   -0.8340 A=    0.0000 R=    0.0000 C=    0.0000
 XYZ=   15.6719    4.7408   12.7702 Q=    0.4170 A=    0.0000 R=    0.0000 C=    0.0000
 XYZ=   16.8994    5.2491   13.4960 Q=    0.4170 A=    0.0000 R=    0.0000 C=    0.0000
 XYZ=    9.8761    4.9111   14.5161 Q=   -0.8340 A=    0.0000 R=    0.0000 C=    0.0000
 XYZ=    9.5950    4.1796   15.0657 Q=    0.4170 A=    0.0000 R=    0.0000 C=    0.0000
 XYZ=    9.4745    4.7395   13.6643 Q=    0.4170 A=    0.0000 R=    0.0000 C=    0.0000
 XYZ=   11.5259   17.5209   29.6456 Q=   -0.8340 A=    0.0000 R=    0.0000 C=    0.0000
 XYZ=   12.2991   17.5010   30.2095 Q=    0.4170 A=    0.0000 R=    0.0000 C=    0.0000
 XYZ=   11.8640   17.3416   28.7682 Q=    0.4170 A=    0.0000 R=    0.0000 C=    0.0000
 XYZ=   24.2462   11.6207   21.2458 Q=   -0.8340 A=    0.0000 R=    0.0000 C=    0.0000
 XYZ=   24.8754   11.8902   20.5767 Q=    0.4170 A=    0.0000 R=    0.0000 C=    0.0000
 XYZ=   23.7829   12.4256   21.4777 Q=    0.4170 A=    0.0000 R=    0.0000 C=    0.0000
 XYZ=   26.0453   10.2312   18.3060 Q=   -0.8340 A=    0.0000 R=    0.0000 C=    0.0000
 XYZ=   26.7632    9.6684   18.0158 Q=    0.4170 A=    0.0000 R=    0.0000 C=    0.0000
 XYZ=   26.4486   10.8293   18.9352 Q=    0.4170 A=    0.0000 R=    0.0000 C=    0.0000
 XYZ=   19.5952   11.6203   10.8459 Q=   -0.8340 A=    0.0000 R=    0.0000 C=    0.0000
 XYZ=   18.6640   11.4176   10.7561 Q=    0.4170 A=    0.0000 R=    0.0000 C=    0.0000
 XYZ=   20.0097   10.7744   11.0159 Q=    0.4170 A=    0.0000 R=    0.0000 C=    0.0000
 XYZ=   29.4665   16.0612   22.4463 Q=   -0.8340 A=    0.0000 R=    0.0000 C=    0.0000
 XYZ=   30.3521   15.9397   22.1040 Q=    0.4170 A=    0.0000 R=    0.0000 C=    0.0000
 XYZ=   29.5918   16.5091   23.2829 Q=    0.4170 A=    0.0000 R=    0.0000 C=    0.0000
 XYZ=   24.5459   20.9711    9.2262 Q=   -0.8340 A=    0.0000 R=    0.0000 C=    0.0000
 XYZ=   23.8944   21.6419    9.0217 Q=    0.4170 A=    0.0000 R=    0.0000 C=    0.0000
 XYZ=   24.6486   21.0182   10.1767 Q=    0.4170 A=    0.0000 R=    0.0000 C=    0.0000
 XYZ=   18.8460   16.5106    4.2260 Q=   -0.8340 A=    0.0000 R=    0.0000 C=    0.0000
 XYZ=   18.3072   16.0720    4.8845 Q=    0.4170 A=    0.0000 R=    0.0000 C=    0.0000
 XYZ=   18.5647   17.4251    4.2561 Q=    0.4170 A=    0.0000 R=    0.0000 C=    0.0000
 XYZ=   20.1751   13.7512   28.0363 Q=   -0.8340 A=    0.0000 R=    0.0000 C=    0.0000
 XYZ=   19.5051   14.3088   28.4317 Q=    0.4170 A=    0.0000 R=    0.0000 C=    0.0000
 XYZ=   19.7797   12.8798   28.0142 Q=    0.4170 A=    0.0000 R=    0.0000 C=    0.0000
 XYZ=    6.7358   23.1907   23.6961 Q=   -0.8340 A=    0.0000 R=    0.0000 C=    0.0000
 XYZ=    6.4845   23.5989   22.8675 Q=    0.4170 A=    0.0000 R=    0.0000 C=    0.0000
 XYZ=    6.0202   22.5861   23.8925 Q=    0.4170 A=    0.0000 R=    0.0000 C=    0.0000
 XYZ=   19.1965   28.1707   21.6159 Q=   -0.8340 A=    0.0000 R=    0.0000 C=    0.0000
 XYZ=   19.7813   28.1423   20.8587 Q=    0.4170 A=    0.0000 R=    0.0000 C=    0.0000
 XYZ=   19.6715   27.7039   22.3036 Q=    0.4170 A=    0.0000 R=    0.0000 C=    0.0000
 XYZ=   15.6562   17.1906    4.3659 Q=   -0.8340 A=    0.0000 R=    0.0000 C=    0.0000
 XYZ=   15.4446   17.5529    3.5056 Q=    0.4170 A=    0.0000 R=    0.0000 C=    0.0000
 XYZ=   15.2337   17.7842    4.9868 Q=    0.4170 A=    0.0000 R=    0.0000 C=    0.0000
 XYZ=   15.5155   11.5307   11.7961 Q=   -0.8340 A=    0.0000 R=    0.0000 C=    0.0000
 XYZ=   15.2402   10.6829   12.1449 Q=    0.4170 A=    0.0000 R=    0.0000 C=    0.0000
 XYZ=   14.6990   12.0129   11.6650 Q=    0.4170 A=    0.0000 R=    0.0000 C=    0.0000
 XYZ=   11.8958   11.9909   25.5960 Q=   -0.8340 A=    0.0000 R=    0.0000 C=    0.0000
 XYZ=   10.9577   11.8015   25.5764 Q=    0.4170 A=    0.0000 R=    0.0000 C=    0.0000
 XYZ=   12.2268   11.6506   24.7648 Q=    0.4170 A=    0.0000 R=    0.0000 C=    0.0000
 XYZ=   13.1959   23.2510   11.6158 Q=   -0.8340 A=    0.0000 R=    0.0000 C=    0.0000
 XYZ=   13.4576   22.4284   12.0292 Q=    0.4170 A=    0.0000 R=    0.0000 C=    0.0000
 XYZ=   12.8655   22.9927   10.7553 Q=    0.4170 A=    0.0000 R=    0.0000 C=    0.0000
 XYZ=   16.8859   21.9009   24.6760 Q=   -0.8340 A=    0.0000 R=    0.0000 C=    0.0000
 XYZ=   16.9670   22.6726   25.2364 Q=    0.4170 A=    0.0000 R=    0.0000 C=    0.0000
 XYZ=   16.0855   21.4698   24.9754 Q=    0.4170 A=    0.0000 R=    0.0000 C=    0.0000
 XYZ=   19.7053   11.0313   14.0653 Q=   -0.8340 A=    0.0000 R=    0.0000 C=    0.0000
 XYZ=   19.7520   11.6184   13.3108 Q=    0.4170 A=    0.0000 R=    0.0000 C=    0.0000
 XYZ=   18.7794   10.7979   14.1309 Q=    0.4170 A=    0.0000 R=    0.0000 C=    0.0000
 XYZ=   17.4760    6.2508   23.5056 Q=   -0.8340 A=    0.0000 R=    0.0000 C=    0.0000
 XYZ=   18.1124    5.5756   23.2701 Q=    0.4170 A=    0.0000 R=    0.0000 C=    0.0000
 XYZ=   17.6281    6.4093   24.4372 Q=    0.4170 A=    0.0000 R=    0.0000 C=    0.0000
 XYZ=   16.2157    8.1205   22.2158 Q=   -0.8340 A=    0.0000 R=    0.0000 C=    0.0000
 XYZ=   16.3377    7.4932   22.9284 Q=    0.4170 A=    0.0000 R=    0.0000 C=    0.0000
 XYZ=   15.7576    7.6258   21.5363 Q=    0.4170 A=    0.0000 R=    0.0000 C=    0.0000
 XYZ=   22.9562   23.2911    7.9963 Q=   -0.8340 A=    0.0000 R=    0.0000 C=    0.0000
 XYZ=   23.7850   23.7698    7.9827 Q=    0.4170 A=    0.0000 R=    0.0000 C=    0.0000
 XYZ=   22.6837   23.3092    8.9137 Q=    0.4170 A=    0.0000 R=    0.0000 C=    0.0000
 XYZ=   18.6159    5.5009   26.0660 Q=   -0.8340 A=    0.0000 R=    0.0000 C=    0.0000
 XYZ=   18.0366    4.8715   26.4955 Q=    0.4170 A=    0.0000 R=    0.0000 C=    0.0000
 XYZ=   19.3364    4.9706   25.7257 Q=    0.4170 A=    0.0000 R=    0.0000 C=    0.0000
 XYZ=    8.7458   27.5110    9.7157 Q=   -0.8340 A=    0.0000 R=    0.0000 C=    0.0000
 XYZ=    8.7682   27.4101   10.6673 Q=    0.4170 A=    0.0000 R=    0.0000 C=    0.0000
 XYZ=    9.6265   27.2706    9.4281 Q=    0.4170 A=    0.0000 R=    0.0000 C=    0.0000
 XYZ=   13.7658   18.6507    9.6658 Q=   -0.8340 A=    0.0000 R=    0.0000 C=    0.0000
 XYZ=   14.5160   18.9425    9.1478 Q=    0.4170 A=    0.0000 R=    0.0000 C=    0.0000
 XYZ=   13.7478   19.2436   10.4170 Q=    0.4170 A=    0.0000 R=    0.0000 C=    0.0000
 XYZ=   20.2057    8.7910   10.2955 Q=   -0.8340 A=    0.0000 R=    0.0000 C=    0.0000
 XYZ=   19.4094    8.8708    9.7704 Q=    0.4170 A=    0.0000 R=    0.0000 C=    0.0000
 XYZ=   20.8966    8.6111    9.6579 Q=    0.4170 A=    0.0000 R=    0.0000 C=    0.0000
 XYZ=   23.5059    6.9510    9.7964 Q=   -0.8340 A=    0.0000 R=    0.0000 C=    0.0000
 XYZ=   23.8986    6.4979    9.0503 Q=    0.4170 A=    0.0000 R=    0.0000 C=    0.0000
 XYZ=   22.8936    7.5733    9.4041 Q=    0.4170 A=    0.0000 R=    0.0000 C=    0.0000
 XYZ=    9.1160   15.1810   27.3856 Q=   -0.8340 A=    0.0000 R=    0.0000 C=    0.0000
 XYZ=    9.6642   14.8221   26.6878 Q=    0.4170 A=    0.0000 R=    0.0000 C=    0.0000
 XYZ=    9.4776   14.8092   28.1901 Q=    0.4170 A=    0.0000 R=    0.0000 C=    0.0000
 XYZ=   23.3362    9.8511   18.4354 Q=   -0.8340 A=    0.0000 R=    0.0000 C=    0.0000
 XYZ=   24.2841    9.8214   18.3053 Q=    0.4170 A=    0.0000 R=    0.0000 C=    0.0000
 XYZ=   23.2036    9.4974   19.3149 Q=    0.4170 A=    0.0000 R=    0.0000 C=    0.0000
 XYZ=   19.1557    8.6007   22.5359 Q=   -0.8340 A=    0.0000 R=    0.0000 C=    0.0000
 XYZ=   19.9573    8.0811   22.4759 Q=    0.4170 A=    0.0000 R=    0.0000 C=    0.0000
 XYZ=   18.4492    7.9551   22.5161 Q=    0.4170 A=    0.0000 R=    0.0000 C=    0.0000
 XYZ=    4.3564   19.9611   13.3763 Q=   -0.8340 A=    0.0000 R=    0.0000 C=    0.0000
 XYZ=    3.8727   20.4603   14.0345 Q=    0.4170 A=    0.0000 R=    0.0000 C=    0.0000
 XYZ=    5.2727   20.0386   13.6419 Q=    0.4170 A=    0.0000 R=    0.0000 C=    0.0000
 XYZ=   13.7864   25.4608    5.9663 Q=   -0.8340 A=    0.0000 R=    0.0000 C=    0.0000
 XYZ=   14.6445   25.2831    6.3512 Q=    0.4170 A=    0.0000 R=    0.0000 C=    0.0000
 XYZ=   13.1608   25.1610    6.6258 Q=    0.4170 A=    0.0000 R=    0.0000 C=    0.0000
 XYZ=    9.6461   12.6710    9.5762 Q=   -0.8340 A=    0.0000 R=    0.0000 C=    0.0000
 XYZ=    9.3379   12.4600    8.6948 Q=    0.4170 A=    0.0000 R=    0.0000 C=    0.0000
 XYZ=   10.5616   12.3915    9.5836 Q=    0.4170 A=    0.0000 R=    0.0000 C=    0.0000
 XYZ=   14.1158   14.3510    2.4057 Q=   -0.8340 A=    0.0000 R=    0.0000 C=    0.0000
 XYZ=   13.3348   14.8522    2.6402 Q=    0.4170 A=    0.0000 R=    0.0000 C=    0.0000
 XYZ=   14.0592   14.2490    1.4556 Q=    0.4170 A=    0.0000 R=    0.0000 C=    0.0000
 XYZ=   16.6260    6.3612    5.9657 Q=   -0.8340 A=    0.0000 R=    0.0000 C=    0.0000
 XYZ=   17.2324    7.0474    5.6872 Q=    0.4170 A=    0.0000 R=    0.0000 C=    0.0000
 XYZ=   15.8692    6.4608    5.3881 Q=    0.4170 A=    0.0000 R=    0.0000 C=    0.0000
 XYZ=    8.0159   19.6109   19.5160 Q=   -0.8340 A=    0.0000 R=    0.0000 C=    0.0000
 XYZ=    8.2460   19.7410   20.4360 Q=    0.4170 A=    0.0000 R=    0.0000 C=    0.0000
 XYZ=    7.1070   19.3113   19.5359 Q=    0.4170 A=    0.0000 R=    0.0000 C=    0.0000
 XYZ=   21.3958    6.5208    6.3959 Q=   -0.8340 A=    0.0000 R=    0.0000 C=    0.0000
 XYZ=   20.6960    5.8727    6.3163 Q=    0.4170 A=    0.0000 R=    0.0000 C=    0.0000
 XYZ=   22.1982    6.0310    6.2158 Q=    0.4170 A=    0.0000 R=    0.0000 C=    0.0000
 XYZ=   17.3258   29.5311   23.0660 Q=   -0.8340 A=    0.0000 R=    0.0000 C=    0.0000
 XYZ=   17.7157   28.6996   22.7961 Q=    0.4170 A=    0.0000 R=    0.0000 C=    0.0000
 XYZ=   16.5480   29.2807   23.5646 Q=    0.4170 A=    0.0000 R=    0.0000 C=    0.0000
 XYZ=    4.9466   18.0006   16.9260 Q=   -0.8340 A=    0.0000 R=    0.0000 C=    0.0000
 XYZ=    5.1014   18.5514   17.6934 Q=    0.4170 A=    0.0000 R=    0.0000 C=    0.0000
 XYZ=    4.0706   18.2454   16.6277 Q=    0.4170 A=    0.0000 R=    0.0000 C=    0.0000
 XYZ=   24.8560   15.7113   18.7162 Q=   -0.8340 A=    0.0000 R=    0.0000 C=    0.0000
 XYZ=   24.2052   15.3877   18.0934 Q=    0.4170 A=    0.0000 R=    0.0000 C=    0.0000
 XYZ=   25.5362   15.0380   18.7242 Q=    0.4170 A=    0.0000 R=    0.0000 C=    0.0000
 XYZ=   28.6861   14.8811   10.2460 Q=   -0.8340 A=    0.0000 R=    0.0000 C=    0.0000
 XYZ=   29.2364   14.5111   10.9363 Q=    0.4170 A=    0.0000 R=    0.0000 C=    0.0000
 XYZ=   28.0740   14.1791   10.0250 Q=    0.4170 A=    0.0000 R=    0.0000 C=    0.0000
 XYZ=   20.7959   26.3810    8.8762 Q=   -0.8340 A=    0.0000 R=    0.0000 C=    0.0000
 XYZ=   21.4772   26.9920    8.5954 Q=    0.4170 A=    0.0000 R=    0.0000 C=    0.0000
 XYZ=   20.5952   25.8689    8.0928 Q=    0.4170 A=    0.0000 R=    0.0000 C=    0.0000
 XYZ=   18.4258   31.0608   21.0461 Q=   -0.8340 A=    0.0000 R=    0.0000 C=    0.0000
 XYZ=   18.0669   30.5126   21.7438 Q=    0.4170 A=    0.0000 R=    0.0000 C=    0.0000
 XYZ=   19.2570   31.3814   21.3963 Q=    0.4170 A=    0.0000 R=    0.0000 C=    0.0000
 XYZ=   10.4662   17.9512   23.2261 Q=   -0.8340 A=    0.0000 R=    0.0000 C=    0.0000
 XYZ=   10.6773   18.0425   24.1553 Q=    0.4170 A=    0.0000 R=    0.0000 C=    0.0000
 XYZ=    9.8311   17.2358   23.1935 Q=    0.4170 A=    0.0000 R=    0.0000 C=    0.0000
 XYZ=   26.3961   13.7010   16.5160 Q=   -0.8340 A=    0.0000 R=    0.0000 C=    0.0000
 XYZ=   25.5545   13.5008   16.9257 Q=    0.4170 A=    0.0000 R=    0.0000 C=    0.0000
 XYZ=   26.1848   13.8511   15.5946 Q=    0.4170 A=    0.0000 R=    0.0000 C=    0.0000
 XYZ=    8.2661   13.9707   24.7462 Q=   -0.8340 A=    0.0000 R=    0.0000 C=    0.0000
 XYZ=    8.4937   13.2117   25.2832 Q=    0.4170 A=    0.0000 R=    0.0000 C=    0.0000
 XYZ=    8.8261   14.6739   25.0750 Q=    0.4170 A=    0.0000 R=    0.0000 C=    0.0000
 XYZ=   21.9361   10.2211   15.9964 Q=   -0.8340 A=    0.0000 R=    0.0000 C=    0.0000
 XYZ=   22.2735   10.5172   16.8418 Q=    0.4170 A=    0.0000 R=    0.0000 C=    0.0000
 XYZ=   22.0254   10.9820   15.4226 Q=    0.4170 A=    0.0000 R=    0.0000 C=    0.0000
 XYZ=   26.3358   26.4810   14.2757 Q=   -0.8340 A=    0.0000 R=    0.0000 C=    0.0000
 XYZ=   26.3838   27.1306   13.5743 Q=    0.4170 A=    0.0000 R=    0.0000 C=    0.0000
 XYZ=   27.1012   26.6604   14.8217 Q=    0.4170 A=    0.0000 R=    0.0000 C=    0.0000
 XYZ=   20.2759   16.3202   30.6359 Q=   -0.8340 A=    0.0000 R=    0.0000 C=    0.0000
 XYZ=   20.7049   16.9866   30.0992 Q=    0.4170 A=    0.0000 R=    0.0000 C=    0.0000
 XYZ=   19.9081   16.8066   31.3738 Q=    0.4170 A=    0.0000 R=    0.0000 C=    0.0000
 XYZ=    9.0458   22.9409   15.7566 Q=   -0.8340 A=    0.0000 R=    0.0000 C=    0.0000
 XYZ=    8.8568   22.1367   16.2401 Q=    0.4170 A=    0.0000 R=    0.0000 C=    0.0000
 XYZ=    8.9775   23.6361   16.4111 Q=    0.4170 A=    0.0000 R=    0.0000 C=    0.0000
 XYZ=    5.7053   14.9809   25.3658 Q=   -0.8340 A=    0.0000 R=    0.0000 C=    0.0000
 XYZ=    6.5315   14.6007   25.0673 Q=    0.4170 A=    0.0000 R=    0.0000 C=    0.0000
 XYZ=    5.9399   15.4812   26.1474 Q=    0.4170 A=    0.0000 R=    0.0000 C=    0.0000
 XYZ=   26.9659   13.0407    9.2056 Q=   -0.8340 A=    0.0000 R=    0.0000 C=    0.0000
 XYZ=   26.2179   13.3006    8.6679 Q=    0.4170 A=    0.0000 R=    0.0000 C=    0.0000
 XYZ=   27.3742   12.3247    8.7189 Q=    0.4170 A=    0.0000 R=    0.0000 C=    0.0000
 XYZ=    5.4059    8.9709   16.5859 Q=   -0.8340 A=    0.0000 R=    0.0000 C=    0.0000
 XYZ=    6.0235    9.4413   17.1459 Q=    0.4170 A=    0.0000 R=    0.0000 C=    0.0000
 XYZ=    4.5485    9.3215   16.8268 Q=    0.4170 A=    0.0000 R=    0.0000 C=    0.0000
 XYZ=   24.0359   21.9308   21.9063 Q=   -0.8340 A=    0.0000 R=    0.0000 C=    0.0000
 XYZ=   24.0061   21.9115   20.9498 Q=    0.4170 A=    0.0000 R=    0.0000 C=    0.0000
 XYZ=   24.4971   22.7430   22.1157 Q=    0.4170 A=    0.0000 R=    0.0000 C=    0.0000
 XYZ=   28.8155   12.2413   17.4960 Q=   -0.8340 A=    0.0000 R=    0.0000 C=    0.0000
 XYZ=   29.2473   12.8397   18.1056 Q=    0.4170 A=    0.0000 R=    0.0000 C=    0.0000
 XYZ=   27.9324   12.5968   17.3956 Q=    0.4170 A=    0.0000 R=    0.0000 C=    0.0000
 XYZ=   23.5159   28.7609   12.3859 Q=   -0.8340 A=    0.0000 R=    0.0000 C=    0.0000
 XYZ=   24.2656   29.0693   12.8950 Q=    0.4170 A=    0.0000 R=    0.0000 C=    0.0000
 XYZ=   23.7665   27.8833   12.0973 Q=    0.4170 A=    0.0000 R=    0.0000 C=    0.0000
 XYZ=   12.0760   22.5111   14.5859 Q=   -0.8340 A=    0.0000 R=    0.0000 C=    0.0000
 XYZ=   12.0177   21.5611   14.6871 Q=    0.4170 A=    0.0000 R=    0.0000 C=    0.0000
 XYZ=   12.8543   22.7583   15.0852 Q=    0.4170 A=    0.0000 R=    0.0000 C=    0.0000
 XYZ=   13.2461   29.8209   23.4457 Q=   -0.8340 A=    0.0000 R=    0.0000 C=    0.0000
 XYZ=   12.8443   30.0706   24.2779 Q=    0.4170 A=    0.0000 R=    0.0000 C=    0.0000
 XYZ=   12.7860   29.0222   23.1873 Q=    0.4170 A=    0.0000 R=    0.0000 C=    0.0000
 XYZ=   25.8160   23.9410   14.7061 Q=   -0.8340 A=    0.0000 R=    0.0000 C=    0.0000
 XYZ=   26.0857   24.8302   14.4767 Q=    0.4170 A=    0.0000 R=    0.0000 C=    0.0000
 XYZ=   25.7762   23.9414   15.6625 Q=    0.4170 A=    0.0000 R=    0.0000 C=    0.0000
 XYZ=   13.1660   15.8407   23.7860 Q=   -0.8340 A=    0.0000 R=    0.0000 C=    0.0000
 XYZ=   12.7396   16.6316   23.4558 Q=    0.4170 A=    0.0000 R=    0.0000 C=    0.0000
 XYZ=   14.1021   16.0336   23.7348 Q=    0.4170 A=    0.0000 R=    0.0000 C=    0.0000
 XYZ=   25.0258   19.5508   17.7358 Q=   -0.8340 A=    0.0000 R=    0.0000 C=    0.0000
 XYZ=   24.4374   18.9936   17.2262 Q=    0.4170 A=    0.0000 R=    0.0000 C=    0.0000
 XYZ=   25.2575   19.0208   18.4985 Q=    0.4170 A=    0.0000 R=    0.0000 C=    0.0000
 XYZ=   18.8860    4.3904   22.3859 Q=   -0.8340 A=    0.0000 R=    0.0000 C=    0.0000
 XYZ=   19.0257    4.5724   21.4566 Q=    0.4170 A=    0.0000 R=    0.0000 C=    0.0000
 XYZ=   18.9551    3.4383   22.4569 Q=    0.4170 A=    0.0000 R=    0.0000 C=    0.0000
 XYZ=   25.5156   15.5708   27.7660 Q=   -0.8340 A=    0.0000 R=    0.0000 C=    0.0000
 XYZ=   26.3698   15.9430   27.5467 Q=    0.4170 A=    0.0000 R=    0.0000 C=    0.0000
 XYZ=   25.4176   15.7315   28.7045 Q=    0.4170 A=    0.0000 R=    0.0000 C=    0.0000
 XYZ=   28.0063    7.9210   10.6858 Q=   -0.8340 A=    0.0000 R=    0.0000 C=    0.0000
 XYZ=   28.5747    7.2117   10.9859 Q=    0.4170 A=    0.0000 R=    0.0000 C=    0.0000
 XYZ=   27.1809    7.7795   11.1492 Q=    0.4170 A=    0.0000 R=    0.0000 C=    0.0000
 XYZ=   18.2163   10.4710   19.7062 Q=   -0.8340 A=    0.0000 R=    0.0000 C=    0.0000
 XYZ=   18.9234   10.2534   20.3136 Q=    0.4170 A=    0.0000 R=    0.0000 C=    0.0000
 XYZ=   17.8228    9.6273   19.4838 Q=    0.4170 A=    0.0000 R=    0.0000 C=    0.0000
 XYZ=   11.0861    7.2510   12.1262 Q=   -0.8340 A=    0.0000 R=    0.0000 C=    0.0000
 XYZ=   10.3362    6.7611   12.4637 Q=    0.4170 A=    0.0000 R=    0.0000 C=    0.0000
 XYZ=   11.0041    7.1897   11.1745 Q=    0.4170 A=    0.0000 R=    0.0000 C=    0.0000
 XYZ=   23.4258   14.2607   16.8460 Q=   -0.8340 A=    0.0000 R=    0.0000 C=    0.0000
 XYZ=   23.3358   14.4706   15.9164 Q=    0.4170 A=    0.0000 R=    0.0000 C=    0.0000
 XYZ=   22.8292   13.5251   16.9848 Q=    0.4170 A=    0.0000 R=    0.0000 C=    0.0000
 XYZ=   12.8058    9.3812   22.1263 Q=   -0.8340 A=    0.0000 R=    0.0000 C=    0.0000
 XYZ=   12.9672    9.8776   21.3240 Q=    0.4170 A=    0.0000 R=    0.0000 C=    0.0000
 XYZ=   13.0374    8.4801   21.9017 Q=    0.4170 A=    0.0000 R=    0.0000 C=    0.0000
 XYZ=   10.5360   24.4112   13.2357 Q=   -0.8340 A=    0.0000 R=    0.0000 C=    0.0000
 XYZ=   10.9375   23.8880   13.9295 Q=    0.4170 A=    0.0000 R=    0.0000 C=    0.0000
 XYZ=   11.2137   25.0395   12.9862 Q=    0.4170 A=    0.0000 R=    0.0000 C=    0.0000
 XYZ=   23.9363   17.6611   15.9856 Q=   -0.8340 A=    0.0000 R=    0.0000 C=    0.0000
 XYZ=   23.3936   17.6301   15.1977 Q=    0.4170 A=    0.0000 R=    0.0000 C=    0.0000
 XYZ=   24.8024   17.9195   15.6704 Q=    0.4170 A=    0.0000 R=    0.0000 C=    0.0000
 XYZ=   20.7360   25.6209    5.6058 Q=   -0.8340 A=    0.0000 R=    0.0000 C=    0.0000
 XYZ=   20.7856   25.2916    4.7084 Q=    0.4170 A=    0.0000 R=    0.0000 C=    0.0000
 XYZ=   21.4455   26.2606    5.6662 Q=    0.4170 A=    0.0000 R=    0.0000 C=    0.0000
 XYZ=   20.6461   26.2404   22.8053 Q=   -0.8340 A=    0.0000 R=    0.0000 C=    0.0000
 XYZ=   21.4068   26.6651   22.4089 Q=    0.4170 A=    0.0000 R=    0.0000 C=    0.0000
 XYZ=   20.4833   25.4756   22.2531 Q=    0.4170 A=    0.0000 R=    0.0000 C=    0.0000
 XYZ=    5.6161   10.7211   14.4659 Q=   -0.8340 A=    0.0000 R=    0.0000 C=    0.0000
 XYZ=    5.4249   10.0782   15.1487 Q=    0.4170 A=    0.0000 R=    0.0000 C=    0.0000
 XYZ=    4.8739   10.6606   13.8645 Q=    0.4170 A=    0.0000 R=    0.0000 C=    0.0000
 XYZ=   23.4054   15.1013   14.1559 Q=   -0.8340 A=    0.0000 R=    0.0000 C=    0.0000
 XYZ=   24.3338   15.2704   13.9953 Q=    0.4170 A=    0.0000 R=    0.0000 C=    0.0000
 XYZ=   22.9668   15.9152   13.9079 Q=    0.4170 A=    0.0000 R=    0.0000 C=    0.0000
 XYZ=   14.9561   18.0008   20.9757 Q=   -0.8340 A=    0.0000 R=    0.0000 C=    0.0000
 XYZ=   15.8542   18.2711   21.1668 Q=    0.4170 A=    0.0000 R=    0.0000 C=    0.0000
 XYZ=   14.4455   18.3224   21.7188 Q=    0.4170 A=    0.0000 R=    0.0000 C=    0.0000
 XYZ=   23.2856    3.0713   11.2356 Q=   -0.8340 A=    0.0000 R=    0.0000 C=    0.0000
 XYZ=   22.8197    3.9058   11.2880 Q=    0.4170 A=    0.0000 R=    0.0000 C=    0.0000
 XYZ=   23.1378    2.7698   10.3392 Q=    0.4170 A=    0.0000 R=    0.0000 C=    0.0000
 XYZ=   14.2561   21.9608   22.0759 Q=   -0.8340 A=    0.0000 R=    0.0000 C=    0.0000
 XYZ=   13.6174   22.6124   22.3655 Q=    0.4170 A=    0.0000 R=    0.0000 C=    0.0000
 XYZ=   15.0328   22.4713   21.8471 Q=    0.4170 A=    0.0000 R=    0.0000 C=    0.0000
 XYZ=   10.7759   19.1317   13.0764 Q=   -0.8340 A=    0.0000 R=    0.0000 C=    0.0000
 XYZ=   10.6590   19.8747   13.6684 Q=    0.4170 A=    0.0000 R=    0.0000 C=    0.0000
 XYZ=   10.1731   18.4652   13.4059 Q=    0.4170 A=    0.0000 R=    0.0000 C=    0.0000
 XYZ=   19.2560   26.8709   14.5759 Q=   -0.8340 A=    0.0000 R=    0.0000 C=    0.0000
 XYZ=   19.9876   27.4717   14.4343 Q=    0.4170 A=    0.0000 R=    0.0000 C=    0.0000
 XYZ=   19.0041   27.0104   15.4887 Q=    0.4170 A=    0.0000 R=    0.0000 C=    0.0000
 XYZ=   25.2659    4.4705   16.8461 Q=   -0.8340 A=    0.0000 R=    0.0000 C=    0.0000
 XYZ=   25.4069    5.4082   16.7151 Q=    0.4170 A=    0.0000 R=    0.0000 C=    0.0000
 XYZ=   25.8165    4.0504   16.1853 Q=    0.4170 A=    0.0000 R=    0.0000 C=    0.0000
 XYZ=   15.5658    8.6412    8.3060 Q=   -0.8340 A=    0.0000 R=    0.0000 C=    0.0000
 XYZ=   16.4060    9.0378    8.0758 Q=    0.4170 A=    0.0000 R=    0.0000 C=    0.0000
 XYZ=   15.7089    7.7002    8.2050 Q=    0.4170 A=    0.0000 R=    0.0000 C=    0.0000
 XYZ=   15.9463   21.8413   17.7456 Q=   -0.8340 A=    0.0000 R=    0.0000 C=    0.0000
 XYZ=   15.3751   21.9695   16.9883 Q=    0.4170 A=    0.0000 R=    0.0000 C=    0.0000
 XYZ=   15.4205   21.3274   18.3586 Q=    0.4170 A=    0.0000 R=    0.0000 C=    0.0000
 XYZ=    4.9362   21.0012   21.3162 Q=   -0.8340 A=    0.0000 R=    0.0000 C=    0.0000
 XYZ=    4.9343   21.3988   20.4455 Q=    0.4170 A=    0.0000 R=    0.0000 C=    0.0000
 XYZ=    4.3635   20.2388   21.2331 Q=    0.4170 A=    0.0000 R=    0.0000 C=    0.0000
 XYZ=   13.3162   26.5113   10.3461 Q=   -0.8340 A=    0.0000 R=    0.0000 C=    0.0000
 XYZ=   13.5776   25.6309   10.0760 Q=    0.4170 A=    0.0000 R=    0.0000 C=    0.0000
 XYZ=   14.1403   26.9562   10.5440 Q=    0.4170 A=    0.0000 R=    0.0000 C=    0.0000
 XYZ=    6.3860   16.3110   27.6160 Q=   -0.8340 A=    0.0000 R=    0.0000 C=    0.0000
 XYZ=    7.3156   16.1704   27.7957 Q=    0.4170 A=    0.0000 R=    0.0000 C=    0.0000
 XYZ=    6.2355   17.2304   27.8357 Q=    0.4170 A=    0.0000 R=    0.0000 C=    0.0000
 XYZ=   12.8962   14.6816    5.6767 Q=   -0.8340 A=    0.0000 R=    0.0000 C=    0.0000
 XYZ=   12.3836   13.8851    5.5386 Q=    0.4170 A=    0.0000 R=    0.0000 C=    0.0000
 XYZ=   13.2439   14.8963    4.8111 Q=    0.4170 A=    0.0000 R=    0.0000 C=    0.0000
 XYZ=    5.0558   22.2710   18.5063 Q=   -0.8340 A=    0.0000 R=    0.0000 C=    0.0000
 XYZ=    4.9581   23.1967   18.2831 Q=    0.4170 A=    0.0000 R=    0.0000 C=    0.0000
 XYZ=    5.4862   21.8845   17.7437 Q=    0.4170 A=    0.0000 R=    0.0000 C=    0.0000
 XYZ=   16.0055    7.5013   14.4856 Q=   -0.8340 A=    0.0000 R=    0.0000 C=    0.0000
 XYZ=   15.5900    7.9272   15.2354 Q=    0.4170 A=    0.0000 R=    0.0000 C=    0.0000
 XYZ=   16.6685    6.9290   14.8718 Q=    0.4170 A=    0.0000 R=    0.0000 C=    0.0000
 XYZ=   13.2960    8.5307    9.8158 Q=   -0.8340 A=    0.0000 R=    0.0000 C=    0.0000
 XYZ=   14.2167    8.4932    9.5566 Q=    0.4170 A=    0.0000 R=    0.0000 C=    0.0000
 XYZ=   12.9444    7.6730    9.5772 Q=    0.4170 A=    0.0000 R=    0.0000 C=    0.0000
 XYZ=   29.6858   22.7107   17.1960 Q=   -0.8340 A=    0.0000 R=    0.0000 C=    0.0000
 XYZ=   28.7375   22.7007   17.0662 Q=    0.4170 A=    0.0000 R=    0.0000 C=    0.0000
 XYZ=   29.9573   23.5845   16.9148 Q=    0.4170 A=    0.0000 R=    0.0000 C=    0.0000
 XYZ=   17.4158   21.3505    9.7354 Q=   -0.8340 A=    0.0000 R=    0.0000 C=    0.0000
 XYZ=   17.3563   20.6721   10.4081 Q=    0.4170 A=    0.0000 R=    0.0000 C=    0.0000
 XYZ=   17.5874   22.1567   10.2222 Q=    0.4170 A=    0.0000 R=    0.0000 C=    0.0000
 XYZ=   12.2062   18.5109   25.3855 Q=   -0.8340 A=    0.0000 R=    0.0000 C=    0.0000
 XYZ=   12.6660   17.8701   25.9279 Q=    0.4170 A=    0.0000 R=    0.0000 C=    0.0000
 XYZ=   11.5320   18.8725   25.9607 Q=    0.4170 A=    0.0000 R=    0.0000 C=    0.0000
 XYZ=   18.1656    6.2113   15.9659 Q=   -0.8340 A=    0.0000 R=    0.0000 C=    0.0000
 XYZ=   18.1885    5.4284   16.5163 Q=    0.4170 A=    0.0000 R=    0.0000 C=    0.0000
 XYZ=   18.9992    6.1986   15.4958 Q=    0.4170 A=    0.0000 R=    0.0000 C=    0.0000
 XYZ=   23.5059   17.3411   26.2661 Q=   -0.8340 A=    0.0000 R=    0.0000 C=    0.0000
 XYZ=   24.1253   16.7107   26.6340 Q=    0.4170 A=    0.0000 R=    0.0000 C=    0.0000
 XYZ=   23.3469   17.0292   25.3752 Q=    0.4170 A=    0.0000 R=    0.0000 C=    0.0000
 XYZ=   16.4659    3.4911   16.7660 Q=   -0.8340 A=    0.0000 R=    0.0000 C=    0.0000
 XYZ=   16.8364    2.6294   16.5752 Q=    0.4170 A=    0.0000 R=    0.0000 C=    0.0000
 XYZ=   15.9365    3.7004   15.9964 Q=    0.4170 A=    0.0000 R=    0.0000 C=    0.0000
 XYZ=   27.9764   18.4211   18.9454 Q=   -0.8340 A=    0.0000 R=    0.0000 C=    0.0000
 XYZ=   27.8535   17.4879   19.1192 Q=    0.4170 A=    0.0000 R=    0.0000 C=    0.0000
 XYZ=   27.4615   18.8611   19.6218 Q=    0.4170 A=    0.0000 R=    0.0000 C=    0.0000
 XYZ=   26.0762   19.0508    7.8354 Q=   -0.8340 A=    0.0000 R=    0.0000 C=    0.0000
 XYZ=   26.0535   18.2849    8.4092 Q=    0.4170 A=    0.0000 R=    0.0000 C=    0.0000
 XYZ=   25.6741   19.7494    8.3516 Q=    0.4170 A=    0.0000 R=    0.0000 C=    0.0000
 XYZ=   11.6757   12.2210    4.7460 Q=   -0.8340 A=    0.0000 R=    0.0000 C=    0.0000
 XYZ=   10.7794   12.0909    4.4364 Q=    0.4170 A=    0.0000 R=    0.0000 C=    0.0000
 XYZ=   12.2159   11.7201    4.1348 Q=    0.4170 A=    0.0000 R=    0.0000 C=    0.0000
 XYZ=   26.2261   17.6906   13.5560 Q=   -0.8340 A=    0.0000 R=    0.0000 C=    0.0000
 XYZ=   26.6865   17.7952   14.3886 Q=    0.4170 A=    0.0000 R=    0.0000 C=    0.0000
 XYZ=   26.3237   16.7626   13.3428 Q=    0.4170 A=    0.0000 R=    0.0000 C=    0.0000
 XYZ=   12.3465   26.4912   12.8458 Q=   -0.8340 A=    0.0000 R=    0.0000 C=    0.0000
 XYZ=   12.9618   26.8094   13.5063 Q=    0.4170 A=    0.0000 R=    0.0000 C=    0.0000
 XYZ=   12.8211   26.5694   12.0182 Q=    0.4170 A=    0.0000 R=    0.0000 C=    0.0000
 XYZ=   23.6756   23.0811   25.8058 Q=   -0.8340 A=    0.0000 R=    0.0000 C=    0.0000
 XYZ=   22.9994   22.7813   25.1983 Q=    0.4170 A=    0.0000 R=    0.0000 C=    0.0000
 XYZ=   23.3481   23.9180   26.1354 Q=    0.4170 A=    0.0000 R=    0.0000 C=    0.0000
 XYZ=   10.2758   14.8111   20.4258 Q=   -0.8340 A=    0.0000 R=    0.0000 C=    0.0000
 XYZ=   10.7359   15.6496   20.3865 Q=    0.4170 A=    0.0000 R=    0.0000 C=    0.0000
 XYZ=    9.5282   14.9198   19.8380 Q=    0.4170 A=    0.0000 R=    0.0000 C=    0.0000
 XYZ=   24.7061   24.5511   17.1161 Q=   -0.8340 A=    0.0000 R=    0.0000 C=    0.0000
 XYZ=   23.8244   24.4218   16.7667 Q=    0.4170 A=    0.0000 R=    0.0000 C=    0.0000
 XYZ=   24.5849   25.1383   17.8622 Q=    0.4170 A=    0.0000 R=    0.0000 C=    0.0000
 XYZ=   28.7763   13.5209   13.8360 Q=   -0.8340 A=    0.0000 R=    0.0000 C=    0.0000
 XYZ=   29.3131   12.7427   13.6860 Q=    0.4170 A=    0.0000 R=    0.0000 C=    0.0000
 XYZ=   29.3929   14.1799   14.1551 Q=    0.4170 A=    0.0000 R=    0.0000 C=    0.0000
 XYZ=   11.6459   19.4008    7.4461 Q=   -0.8340 A=    0.0000 R=    0.0000 C=    0.0000
 XYZ=   12.4343   18.8920    7.6355 Q=    0.4170 A=    0.0000 R=    0.0000 C=    0.0000
 XYZ=   10.9978   19.0819    8.0741 Q=    0.4170 A=    0.0000 R=    0.0000 C=    0.0000
 XYZ=   24.9159   20.6409   14.8457 Q=   -0.8340 A=    0.0000 R=    0.0000 C=    0.0000
 XYZ=   25.5163   21.3811   14.7578 Q=    0.4170 A=    0.0000 R=    0.0000 C=    0.0000
 XYZ=   24.8670   20.4820   15.7884 Q=    0.4170 A=    0.0000 R=    0.0000 C=    0.0000
 XYZ=   13.8959    2.3708   17.3560 Q=   -0.8340 A=    0.0000 R=    0.0000 C=    0.0000
 XYZ=   14.4865    3.0528   17.6756 Q=    0.4170 A=    0.0000 R=    0.0000 C=    0.0000
 XYZ=   13.4663    2.7623   16.5955 Q=    0.4170 A=    0.0000 R=    0.0000 C=    0.0000
 XYZ=   22.8158   14.3112   21.6456 Q=   -0.8340 A=    0.0000 R=    0.0000 C=    0.0000
 XYZ=   22.1753   13.9263   21.0474 Q=    0.4170 A=    0.0000 R=    0.0000 C=    0.0000
 XYZ=   22.9192   15.2121   21.3393 Q=    0.4170 A=    0.0000 R=    0.0000 C=    0.0000
 XYZ=   12.6764   16.0314   10.0261 Q=   -0.8340 A=    0.0000 R=    0.0000 C=    0.0000
 XYZ=   12.6319   16.9481    9.7541 Q=    0.4170 A=    0.0000 R=    0.0000 C=    0.0000
 XYZ=   13.4724   15.9764   10.5549 Q=    0.4170 A=    0.0000 R=    0.0000 C=    0.0000
 XYZ=   15.8755   13.5209   26.9660 Q=   -0.8340 A=    0.0000 R=    0.0000 C=    0.0000
 XYZ=   16.2092   12.9894   26.2432 Q=    0.4170 A=    0.0000 R=    0.0000 C=    0.0000
 XYZ=   14.9395   13.3230   26.9973 Q=    0.4170 A=    0.0000 R=    0.0000 C=    0.0000
 XYZ=   17.4055   25.3911   26.4959 Q=   -0.8340 A=    0.0000 R=    0.0000 C=    0.0000
 XYZ=   18.1000   24.8778   26.9087 Q=    0.4170 A=    0.0000 R=    0.0000 C=    0.0000
 XYZ=   16.6687   25.3310   27.1040 Q=    0.4170 A=    0.0000 R=    0.0000 C=    0.0000
 XYZ=   22.3661   19.5809   19.8558 Q=   -0.8340 A=    0.0000 R=    0.0000 C=    0.0000
 XYZ=   23.2352   19.9807   19.8861 Q=    0.4170 A=    0.0000 R=    0.0000 C=    0.0000
 XYZ=   21.8745   20.0225   20.5483 Q=    0.4170 A=    0.0000 R=    0.0000 C=    0.0000
 XYZ=   22.5356    7.4104   15.6964 Q=   -0.8340 A=    0.0000 R=    0.0000 C=    0.0000
 XYZ=   22.0514    6.9446   16.3783 Q=    0.4170 A=    0.0000 R=    0.0000 C=    0.0000
 XYZ=   22.3859    8.3366   15.8859 Q=    0.4170 A=    0.0000 R=    0.0000 C=    0.0000
 XYZ=   28.7060   20.1606   24.0359 Q=   -0.8340 A=    0.0000 R=    0.0000 C=    0.0000
 XYZ=   29.5842   19.8819   23.7765 Q=    0.4170 A=    0.0000 R=    0.0000 C=    0.0000
 XYZ=   28.7565   21.1160   24.0660 Q=    0.4170 A=    0.0000 R=    0.0000 C=    0.0000
 XYZ=   28.2559   15.7611   19.8561 Q=   -0.8340 A=    0.0000 R=    0.0000 C=    0.0000
 XYZ=   29.0179   15.2493   19.5846 Q=    0.4170 A=    0.0000 R=    0.0000 C=    0.0000
 XYZ=   28.4950   16.1106   20.7145 Q=    0.4170 A=    0.0000 R=    0.0000 C=    0.0000
 XYZ=    5.7361   15.5308   17.7960 Q=   -0.8340 A=    0.0000 R=    0.0000 C=    0.0000
 XYZ=    6.6538   15.4016   17.5564 Q=    0.4170 A=    0.0000 R=    0.0000 C=    0.0000
 XYZ=    5.5659   16.4532   17.6054 Q=    0.4170 A=    0.0000 R=    0.0000 C=    0.0000
 XYZ=   13.2559   14.3413   29.6759 Q=   -0.8340 A=    0.0000 R=    0.0000 C=    0.0000
 XYZ=   13.7240   15.0903   29.3069 Q=    0.4170 A=    0.0000 R=    0.0000 C=    0.0000
 XYZ=   13.8782   13.6164   29.6162 Q=    0.4170 A=    0.0000 R=    0.0000 C=    0.0000
 XYZ=   30.2659   16.2509   15.3361 Q=   -0.8340 A=    0.0000 R=    0.0000 C=    0.0000
 XYZ=   30.1954   17.1606   15.0467 Q=    0.4170 A=    0.0000 R=    0.0000 C=    0.0000
 XYZ=   29.6477   16.1820   16.0636 Q=    0.4170 A=    0.0000 R=    0.0000 C=    0.0000
 XYZ=    9.6358   25.8610   21.8360 Q=   -0.8340 A=    0.0000 R=    0.0000 C=    0.0000
 XYZ=    9.2951   25.3307   22.5564 Q=    0.4170 A=    0.0000 R=    0.0000 C=    0.0000
 XYZ=   10.5794   25.7008   21.8455 Q=    0.4170 A=    0.0000 R=    0.0000 C=    0.0000
 XYZ=    8.9462   12.8114   22.0263 Q=   -0.8340 A=    0.0000 R=    0.0000 C=    0.0000
 XYZ=    8.8845   13.2165   22.8913 Q=    0.4170 A=    0.0000 R=    0.0000 C=    0.0000
 XYZ=    9.5838   13.3478   21.5551 Q=    0.4170 A=    0.0000 R=    0.0000 C=    0.0000
 XYZ=   21.1060   31.0709   14.7458 Q=   -0.8340 A=    0.0000 R=    0.0000 C=    0.0000
 XYZ=   21.3356   30.1420   14.7171 Q=    0.4170 A=    0.0000 R=    0.0000 C=    0.0000
 XYZ=   21.0857   31.3415   13.8278 Q=    0.4170 A=    0.0000 R=    0.0000 C=    0.0000
 XYZ=    9.3363   24.0907   19.4359 Q=   -0.8340 A=    0.0000 R=    0.0000 C=    0.0000
 XYZ=    9.0842   24.5633   20.2292 Q=    0.4170 A=    0.0000 R=    0.0000 C=    0.0000
 XYZ=    8.5924   24.2018   18.8438 Q=    0.4170 A=    0.0000 R=    0.0000 C=    0.0000
 XYZ=   30.0853   21.2311   19.3957 Q=   -0.8340 A=    0.0000 R=    0.0000 C=    0.0000
 XYZ=   29.1933   21.1210   19.7249 Q=    0.4170 A=    0.0000 R=    0.0000 C=    0.0000
 XYZ=   29.9784   21.6879   18.5613 Q=    0.4170 A=    0.0000 R=    0.0000 C=    0.0000
 XYZ=   15.2762    9.6512    4.2462 Q=   -0.8340 A=    0.0000 R=    0.0000 C=    0.0000
 XYZ=   14.5514    9.4893    3.6423 Q=    0.4170 A=    0.0000 R=    0.0000 C=    0.0000
 XYZ=   15.4062   10.5991    4.2164 Q=    0.4170 A=    0.0000 R=    0.0000 C=    0.0000
 XYZ=    5.4360   24.6010   15.9156 Q=   -0.8340 A=    0.0000 R=    0.0000 C=    0.0000
 XYZ=    5.3160   25.4588   15.5081 Q=    0.4170 A=    0.0000 R=    0.0000 C=    0.0000
 XYZ=    5.7152   24.0317   15.1987 Q=    0.4170 A=    0.0000 R=    0.0000 C=    0.0000
 XYZ=   16.4758   12.2911   24.7960 Q=   -0.8340 A=    0.0000 R=    0.0000 C=    0.0000
 XYZ=   15.7637   12.6024   24.2372 Q=    0.4170 A=    0.0000 R=    0.0000 C=    0.0000
 XYZ=   17.0811   11.8578   24.1943 Q=    0.4170 A=    0.0000 R=    0.0000 C=    0.0000
 XYZ=   16.0158    3.9507   19.5259 Q=   -0.8340 A=    0.0000 R=    0.0000 C=    0.0000
 XYZ=   15.9470    3.6032   18.6366 Q=    0.4170 A=    0.0000 R=    0.0000 C=    0.0000
 XYZ=   15.6070    3.2831   20.0767 Q=    0.4170 A=    0.0000 R=    0.0000 C=    0.0000
 XYZ=   22.0059   19.5313    5.8961 Q=   -0.8340 A=    0.0000 R=    0.0000 C=    0.0000
 XYZ=   22.5163   20.3373    5.9746 Q=    0.4170 A=    0.0000 R=    0.0000 C=    0.0000
 XYZ=   21.1657   19.7385    6.3052 Q=    0.4170 A=    0.0000 R=    0.0000 C=    0.0000
 XYZ=   22.0056   22.1910   17.5159 Q=   -0.8340 A=    0.0000 R=    0.0000 C=    0.0000
 XYZ=   21.7883   22.9508   16.9759 Q=    0.4170 A=    0.0000 R=    0.0000 C=    0.0000
 XYZ=   21.1591   21.8601   17.8163 Q=    0.4170 A=    0.0000 R=    0.0000 C=    0.0000
 XYZ=   17.8759   26.8710   19.4362 Q=   -0.8340 A=    0.0000 R=    0.0000 C=    0.0000
 XYZ=   16.9231   26.8400   19.5225 Q=    0.4170 A=    0.0000 R=    0.0000 C=    0.0000
 XYZ=   18.1898   27.0811   20.3157 Q=    0.4170 A=    0.0000 R=    0.0000 C=    0.0000
 XYZ=   24.7660   25.9708   19.5258 Q=   -0.8340 A=    0.0000 R=    0.0000 C=    0.0000
 XYZ=   24.0073   26.2525   20.0369 Q=    0.4170 A=    0.0000 R=    0.0000 C=    0.0000
 XYZ=   25.4735   26.5511   19.8069 Q=    0.4170 A=    0.0000 R=    0.0000 C=    0.0000
 XYZ=   11.9160   15.9006    3.2158 Q=   -0.8340 A=    0.0000 R=    0.0000 C=    0.0000
 XYZ=   11.0059   16.1833    3.1268 Q=    0.4170 A=    0.0000 R=    0.0000 C=    0.0000
 XYZ=   12.3654   16.6547    3.5973 Q=    0.4170 A=    0.0000 R=    0.0000 C=    0.0000
 XYZ=   11.0455   20.1407   15.5763 Q=   -0.8340 A=    0.0000 R=    0.0000 C=    0.0000
 XYZ=   11.3389   19.2314   15.6337 Q=    0.4170 A=    0.0000 R=    0.0000 C=    0.0000
 XYZ=   10.2599   20.1743   16.1222 Q=    0.4170 A=    0.0000 R=    0.0000 C=    0.0000
 XYZ=   18.8363   26.1209   10.7057 Q=   -0.8340 A=    0.0000 R=    0.0000 C=    0.0000
 XYZ=   19.5228   26.0895   10.0394 Q=    0.4170 A=    0.0000 R=    0.0000 C=    0.0000
 XYZ=   18.5841   27.0434   10.7472 Q=    0.4170 A=    0.0000 R=    0.0000 C=    0.0000
 XYZ=   22.7154   17.5311   13.7261 Q=   -0.8340 A=    0.0000 R=    0.0000 C=    0.0000
 XYZ=   21.8116   17.8191   13.5979 Q=    0.4170 A=    0.0000 R=    0.0000 C=    0.0000
 XYZ=   23.0788   17.4804   12.8420 Q=    0.4170 A=    0.0000 R=    0.0000 C=    0.0000
 XYZ=    3.9663   11.9109   20.9457 Q=   -0.8340 A=    0.0000 R=    0.0000 C=    0.0000
 XYZ=    4.8031   11.8211   20.4897 Q=    0.4170 A=    0.0000 R=    0.0000 C=    0.0000
 XYZ=    3.3237   12.0312   20.2465 Q=    0.4170 A=    0.0000 R=    0.0000 C=    0.0000
 XYZ=   20.9060   20.9205   21.7964 Q=   -0.8340 A=    0.0000 R=    0.0000 C=    0.0000
 XYZ=   21.6139   20.8142   22.4319 Q=    0.4170 A=    0.0000 R=    0.0000 C=    0.0000
 XYZ=   20.3365   20.1653   21.9430 Q=    0.4170 A=    0.0000 R=    0.0000 C=    0.0000
 XYZ=    6.8962   13.7705   20.3560 Q=   -0.8340 A=    0.0000 R=    0.0000 C=    0.0000
 XYZ=    6.7946   13.1146   19.6662 Q=    0.4170 A=    0.0000 R=    0.0000 C=    0.0000
 XYZ=    7.4240   13.3350   21.0253 Q=    0.4170 A=    0.0000 R=    0.0000 C=    0.0000
 XYZ=   11.0057   27.8307   23.2865 Q=   -0.8340 A=    0.0000 R=    0.0000 C=    0.0000
 XYZ=   10.2482   28.1432   23.7813 Q=    0.4170 A=    0.0000 R=    0.0000 C=    0.0000
 XYZ=   11.2983   27.0529   23.7615 Q=    0.4170 A=    0.0000 R=    0.0000 C=    0.0000
 XYZ=   11.7162    3.6910   18.9261 Q=   -0.8340 A=    0.0000 R=    0.0000 C=    0.0000
 XYZ=   10.9347    3.5417   18.3939 Q=    0.4170 A=    0.0000 R=    0.0000 C=    0.0000
 XYZ=   12.1639    4.4194   18.4959 Q=    0.4170 A=    0.0000 R=    0.0000 C=    0.0000
 XYZ=    6.2657   25.8310   11.5754 Q=   -0.8340 A=    0.0000 R=    0.0000 C=    0.0000
 XYZ=    6.4560   25.8117   12.5133 Q=    0.4170 A=    0.0000 R=    0.0000 C=    0.0000
 XYZ=    5.4393   26.3092   11.5079 Q=    0.4170 A=    0.0000 R=    0.0000 C=    0.0000
 XYZ=    9.3957   12.5210   16.0258 Q=   -0.8340 A=    0.0000 R=    0.0000 C=    0.0000
 XYZ=   10.2000   12.2499   16.4683 Q=    0.4170 A=    0.0000 R=    0.0000 C=    0.0000
 XYZ=    9.1962   13.3809   16.3961 Q=    0.4170 A=    0.0000 R=    0.0000 C=    0.0000
 XYZ=   23.3061   15.6709   24.1260 Q=   -0.8340 A=    0.0000 R=    0.0000 C=    0.0000
 XYZ=   22.9466   15.2305   23.3560 Q=    0.4170 A=    0.0000 R=    0.0000 C=    0.0000
 XYZ=   24.1421   15.2325   24.2847 Q=    0.4170 A=    0.0000 R=    0.0000 C=    0.0000
 XYZ=   27.3758    9.9213   15.4466 Q=   -0.8340 A=    0.0000 R=    0.0000 C=    0.0000
 XYZ=   28.2386   10.2691   15.6723 Q=    0.4170 A=    0.0000 R=    0.0000 C=    0.0000
 XYZ=   26.7956   10.2568   16.1300 Q=    0.4170 A=    0.0000 R=    0.0000 C=    0.0000
 XYZ=   24.0954    6.3606   23.5459 Q=   -0.8340 A=    0.0000 R=    0.0000 C=    0.0000
 XYZ=   24.6194    6.6531   22.8001 Q=    0.4170 A=    0.0000 R=    0.0000 C=    0.0000
 XYZ=   24.5805    6.6636   24.3134 Q=    0.4170 A=    0.0000 R=    0.0000 C=    0.0000
 XYZ=   14.9162    9.6509   24.4063 Q=   -0.8340 A=    0.0000 R=    0.0000 C=    0.0000
 XYZ=   14.2740    9.7328   23.7013 Q=    0.4170 A=    0.0000 R=    0.0000 C=    0.0000
 XYZ=   15.6436   10.2105   24.1346 Q=    0.4170 A=    0.0000 R=    0.0000 C=    0.0000
 XYZ=   18.7260   24.0508    6.3260 Q=   -0.8340 A=    0.0000 R=    0.0000 C=    0.0000
 XYZ=   19.4365   24.6226    6.0353 Q=    0.4170 A=    0.0000 R=    0.0000 C=    0.0000
 XYZ=   19.1648   23.2511    6.6160 Q=    0.4170 A=    0.0000 R=    0.0000 C=    0.0000
 XYZ=   23.1765   12.6613   24.4459 Q=   -0.8340 A=    0.0000 R=    0.0000 C=    0.0000
 XYZ=   23.3318   12.6380   25.3901 Q=    0.4170 A=    0.0000 R=    0.0000 C=    0.0000
 XYZ=   23.9208   13.1483   24.0923 Q=    0.4170 A=    0.0000 R=    0.0000 C=    0.0000
 XYZ=   21.7159    5.1510   11.0952 Q=   -0.8340 A=    0.0000 R=    0.0000 C=    0.0000
 XYZ=   22.2567    5.8110   10.6613 Q=    0.4170 A=    0.0000 R=    0.0000 C=    0.0000
 XYZ=   21.2454    4.7196   10.3820 Q=    0.4170 A=    0.0000 R=    0.0000 C=    0.0000
 XYZ=    4.3358   15.7407   13.5464 Q=   -0.8340 A=    0.0000 R=    0.0000 C=    0.0000
 XYZ=    3.8335   15.5238   14.3319 Q=    0.4170 A=    0.0000 R=    0.0000 C=    0.0000
 XYZ=    5.2006   15.3612   13.7022 Q=    0.4170 A=    0.0000 R=    0.0000 C=    0.0000
 XYZ=   22.8360    8.4510   24.9963 Q=   -0.8340 A=    0.0000 R=    0.0000 C=    0.0000
 XYZ=   23.4645    8.9491   24.4737 Q=    0.4170 A=    0.0000 R=    0.0000 C=    0.0000
 XYZ=   22.3871    7.8914   24.3627 Q=    0.4170 A=    0.0000 R=    0.0000 C=    0.0000
 XYZ=    7.9859   16.2009   20.0460 Q=   -0.8340 A=    0.0000 R=    0.0000 C=    0.0000
 XYZ=    8.1158   16.6007   20.9059 Q=    0.4170 A=    0.0000 R=    0.0000 C=    0.0000
 XYZ=    7.4271   15.4425   20.2158 Q=    0.4170 A=    0.0000 R=    0.0000 C=    0.0000
 XYZ=   20.9659   15.4009   25.9161 Q=   -0.8340 A=    0.0000 R=    0.0000 C=    0.0000
 XYZ=   20.9353   14.6324   26.4860 Q=    0.4170 A=    0.0000 R=    0.0000 C=    0.0000
 XYZ=   21.5374   15.1412   25.1935 Q=    0.4170 A=    0.0000 R=    0.0000 C=    0.0000
 XYZ=   15.5352   11.1012   20.3861 Q=   -0.8340 A=    0.0000 R=    0.0000 C=    0.0000
 XYZ=   16.4426   10.8541   20.2074 Q=    0.4170 A=    0.0000 R=    0.0000 C=    0.0000
 XYZ=   15.6008   11.9346   20.8522 Q=    0.4170 A=    0.0000 R=    0.0000 C=    0.0000
 XYZ=   21.1862   17.8707   22.3857 Q=   -0.8340 A=    0.0000 R=    0.0000 C=    0.0000
 XYZ=   21.6940   17.2150   21.9078 Q=    0.4170 A=    0.0000 R=    0.0000 C=    0.0000
 XYZ=   20.6037   17.3602   22.9481 Q=    0.4170 A=    0.0000 R=    0.0000 C=    0.0000
 XYZ=   19.5362   21.8712   14.7659 Q=   -0.8340 A=    0.0000 R=    0.0000 C=    0.0000
 XYZ=   19.8337   22.7567   14.5571 Q=    0.4170 A=    0.0000 R=    0.0000 C=    0.0000
 XYZ=   20.3336   21.3416   14.7561 Q=    0.4170 A=    0.0000 R=    0.0000 C=    0.0000
 XYZ=    3.7359   15.3809   16.0859 Q=   -0.8340 A=    0.0000 R=    0.0000 C=    0.0000
 XYZ=    3.3264   16.2310   16.2465 Q=    0.4170 A=    0.0000 R=    0.0000 C=    0.0000
 XYZ=    4.4158   15.3116   16.7562 Q=    0.4170 A=    0.0000 R=    0.0000 C=    0.0000
 XYZ=   20.4762   20.1815    8.9761 Q=   -0.8340 A=    0.0000 R=    0.0000 C=    0.0000
 XYZ=   20.0535   19.3257    9.0480 Q=    0.4170 A=    0.0000 R=    0.0000 C=    0.0000
 XYZ=   20.6542   20.4380    9.8810 Q=    0.4170 A=    0.0000 R=    0.0000 C=    0.0000
 XYZ=   24.1861   21.6711   19.2162 Q=   -0.8340 A=    0.0000 R=    0.0000 C=    0.0000
 XYZ=   24.6830   21.0411   18.6942 Q=    0.4170 A=    0.0000 R=    0.0000 C=    0.0000
 XYZ=   23.3464   21.7488   18.7633 Q=    0.4170 A=    0.0000 R=    0.0000 C=    0.0000
 XYZ=   15.0660    4.4011   25.4955 Q=   -0.8340 A=    0.0000 R=    0.0000 C=    0.0000
 XYZ=   15.2456    5.2806   25.8279 Q=    0.4170 A=    0.0000 R=    0.0000 C=    0.0000
 XYZ=   15.2047    4.4687   24.5508 Q=    0.4170 A=    0.0000 R=    0.0000 C=    0.0000
 XYZ=   13.2161    8.3511   19.5260 Q=   -0.8340 A=    0.0000 R=    0.0000 C=    0.0000
 XYZ=   13.7135    7.6113   19.8747 Q=    0.4170 A=    0.0000 R=    0.0000 C=    0.0000
 XYZ=   12.4160    7.9589   19.1763 Q=    0.4170 A=    0.0000 R=    0.0000 C=    0.0000
 XYZ=    5.5258   23.3211    9.8158 Q=   -0.8340 A=    0.0000 R=    0.0000 C=    0.0000
 XYZ=    5.5061   24.1603   10.2758 Q=    0.4170 A=    0.0000 R=    0.0000 C=    0.0000
 XYZ=    6.0983   22.7689   10.3483 Q=    0.4170 A=    0.0000 R=    0.0000 C=    0.0000
 XYZ=   15.7866   29.6605    8.8860 Q=   -0.8340 A=    0.0000 R=    0.0000 C=    0.0000
 XYZ=   16.6694   29.4456    8.5847 Q=    0.4170 A=    0.0000 R=    0.0000 C=    0.0000
 XYZ=   15.6418   29.0833    9.6358 Q=    0.4170 A=    0.0000 R=    0.0000 C=    0.0000
 XYZ=   26.6559   18.3810    5.1559 Q=   -0.8340 A=    0.0000 R=    0.0000 C=    0.0000
 XYZ=   26.8059   18.0111    6.0260 Q=    0.4170 A=    0.0000 R=    0.0000 C=    0.0000
 XYZ=   26.4863   19.3094    5.3159 Q=    0.4170 A=    0.0000 R=    0.0000 C=    0.0000
 XYZ=   15.2059   24.0409    9.9059 Q=   -0.8340 A=    0.0000 R=    0.0000 C=    0.0000
 XYZ=   14.5681   23.5423   10.4166 Q=    0.4170 A=    0.0000 R=    0.0000 C=    0.0000
 XYZ=   15.8146   24.3899   10.5569 Q=    0.4170 A=    0.0000 R=    0.0000 C=    0.0000
 XYZ=   10.6760    9.6709   27.5359 Q=   -0.8340 A=    0.0000 R=    0.0000 C=    0.0000
 XYZ=   10.3042    8.8310   27.2662 Q=    0.4170 A=    0.0000 R=    0.0000 C=    0.0000
 XYZ=   11.6178    9.5724   27.3963 Q=    0.4170 A=    0.0000 R=    0.0000 C=    0.0000
 XYZ=   18.9560   13.9304   31.2468 Q=   -0.8340 A=    0.0000 R=    0.0000 C=    0.0000
 XYZ=   19.7058   14.5243   31.2104 Q=    0.4170 A=    0.0000 R=    0.0000 C=    0.0000
 XYZ=   18.4862   14.0864   30.4275 Q=    0.4170 A=    0.0000 R=    0.0000 C=    0.0000
 XYZ=   20.2458   25.4213   28.6555 Q=   -0.8340 A=    0.0000 R=    0.0000 C=    0.0000
 XYZ=   20.4482   25.2970   27.7283 Q=    0.4170 A=    0.0000 R=    0.0000 C=    0.0000
 XYZ=   19.7168   26.2187   28.6808 Q=    0.4170 A=    0.0000 R=    0.0000 C=    0.0000
 XYZ=   25.1861   18.7509   28.0960 Q=   -0.8340 A=    0.0000 R=    0.0000 C=    0.0000
 XYZ=   24.4653   18.3006   27.6556 Q=    0.4170 A=    0.0000 R=    0.0000 C=    0.0000
 XYZ=   25.7949   18.0522   28.3355 Q=    0.4170 A=    0.0000 R=    0.0000 C=    0.0000
 XYZ=    9.9859   17.6609    9.0259 Q=   -0.8340 A=    0.0000 R=    0.0000 C=    0.0000
 XYZ=    9.8262   17.3714    8.1276 Q=    0.4170 A=    0.0000 R=    0.0000 C=    0.0000
 XYZ=    9.7661   16.9015    9.5655 Q=    0.4170 A=    0.0000 R=    0.0000 C=    0.0000
 XYZ=   22.7161   18.4808    3.5661 Q=   -0.8340 A=    0.0000 R=    0.0000 C=    0.0000
 XYZ=   23.2638   17.7140    3.7346 Q=    0.4170 A=    0.0000 R=    0.0000 C=    0.0000
 XYZ=   22.4361   18.7710    4.4342 Q=    0.4170 A=    0.0000 R=    0.0000 C=    0.0000
 XYZ=   17.7158   12.9008   12.3859 Q=   -0.8340 A=    0.0000 R=    0.0000 C=    0.0000
 XYZ=   17.0479   12.3227   12.0173 Q=    0.4170 A=    0.0000 R=    0.0000 C=    0.0000
 XYZ=   18.3069   13.0813   11.6550 Q=    0.4170 A=    0.0000 R=    0.0000 C=    0.0000
 XYZ=   20.9056   17.4611   10.4658 Q=   -0.8340 A=    0.0000 R=    0.0000 C=    0.0000
 XYZ=   20.4473   17.2314   11.2742 Q=    0.4170 A=    0.0000 R=    0.0000 C=    0.0000
 XYZ=   20.2203   17.7990    9.8892 Q=    0.4170 A=    0.0000 R=    0.0000 C=    0.0000
 XYZ=   10.7459    7.1108   15.9953 Q=   -0.8340 A=    0.0000 R=    0.0000 C=    0.0000
 XYZ=   11.1474    7.6933   15.3506 Q=    0.4170 A=    0.0000 R=    0.0000 C=    0.0000
 XYZ=   10.3058    6.4408   15.4721 Q=    0.4170 A=    0.0000 R=    0.0000 C=    0.0000
 XYZ=   27.8960   10.4108   23.4361 Q=   -0.8340 A=    0.0000 R=    0.0000 C=    0.0000
 XYZ=   27.2161   10.7711   24.0054 Q=    0.4170 A=    0.0000 R=    0.0000 C=    0.0000
 XYZ=   28.3544    9.7733   23.9836 Q=    0.4170 A=    0.0000 R=    0.0000 C=    0.0000
 XYZ=   19.9555   21.8409    4.2054 Q=   -0.8340 A=    0.0000 R=    0.0000 C=    0.0000
 XYZ=   20.5889   21.7146    4.9119 Q=    0.4170 A=    0.0000 R=    0.0000 C=    0.0000
 XYZ=   19.6203   22.7275    4.3392 Q=    0.4170 A=    0.0000 R=    0.0000 C=    0.0000
 XYZ=   14.5059    9.0113   12.4959 Q=   -0.8340 A=    0.0000 R=    0.0000 C=    0.0000
 XYZ=   13.8760    8.6797   11.8559 Q=    0.4170 A=    0.0000 R=    0.0000 C=    0.0000
 XYZ=   14.9272    8.2267   12.8468 Q=    0.4170 A=    0.0000 R=    0.0000 C=    0.0000
 XYZ=   11.7661   10.7411    9.9159 Q=   -0.8340 A=    0.0000 R=    0.0000 C=    0.0000
 XYZ=   12.4421   10.0709   10.0166 Q=    0.4170 A=    0.0000 R=    0.0000 C=    0.0000
[...]
 17104,-0.00017086,0.00017954,-0.00008529,-0.00031987,-0.00000864,-0.00
 027830,0.00000705,0.00004002,0.00010089,-0.00004920,0.00001300,0.00010
 602,0.00002083,-0.00007006,-0.00009558,0.00003227,0.00003818,0.0000439
 1,-0.00000613,0.00003877,0.00002892,-0.00001347,0.00214929,0.00513306,
 -0.00008474,0.00018548,-0.00147998,0.00062867,-0.00093383,-0.00136734,
 -0.00062141,-0.00004039,-0.00002301,0.00009451,0.00001471,-0.00001863,
 -0.00006985,0.00003743,0.00003494,-0.00003513,-0.00013356,-0.00001135,
 0.00008663,0.00015133,0.00000651,-0.00003944,0.00003050,0.00001197,-0.
 00002407,0.00042502,0.00101565,0.00023059,-0.00004440,-0.00017475,-0.0
 0032977,-0.00006946,-0.00027552,0.00006682,-0.00016477,-0.00005863,-0.
 00020076,0.00016036,0.00008046,0.00024470,0.00006244,0.00004619,0.0000
 2898,0.00008066,0.00006630,0.00028655,0.00001357,-0.00001875,-0.000064
 76,-0.00003579,0.00004491,-0.00008593,-0.00004313,-0.00009147,0.000162
 75,0.00001091,0.00003967,-0.00003718,0.00001942,0.00007611,-0.00013766
 ,0.13074846,-0.06535177,0.44689910,0.00056308,-0.00077744,-0.00041432,
 0.00002328,-0.00047447,-0.00075765,0.00010255,0.00046202,0.00060315,-0
 .00012918,-0.00058561,-0.00101381,-0.00027232,0.00035849,0.00013159,-0
 .00033500,-0.00036393,0.00033800,-0.00011648,0.00001075,-0.00006876,0.
 00033083,0.00003977,0.00058220,-0.00046590,0.00064919,0.00017340,-0.00
 006526,0.00033871,0.00058798,0.00004961,-0.00012090,0.00005611,-0.0000
 2348,-0.00003963,-0.00009528,-0.00187600,0.00001846,-0.00009221,0.0017
 8804,0.00009418,0.00051971,0.00099650,0.00047711,0.00088410,0.00002843
 ,0.00007952,0.00000335,-0.00002573,-0.00004322,-0.00001288,-0.00000971
 ,-0.00002635,0.00000378,-0.00013021,0.00000281,0.00003390,0.00010919,-
 0.00001666,-0.00005559,0.00001925,-0.00000254,-0.00001319,-0.00018907,
 -0.00003457,-0.00009218,0.00013622,0.00000823,0.00007290,0.00007745,0.
 00002479,0.00002938,0.00012923,0.00001601,0.00000942,-0.00007846,-0.00
 003146,-0.00001306,-0.00008428,0.00001469,-0.00001338,0.00000004,-0.00
 007676,0.00019176,0.00004196,0.00003665,-0.00015786,0.00001166,0.00003
 479,-0.00004131,0.00000387,0.00012749,-0.00001470,-0.00002299,-0.00005
 367,0.00000968,-0.00000209,-0.00006657,0.00000842,0.00004592,0.0001058
 9,-0.00007032,-0.00006844,-0.00010202,0.00006719,-0.00002535,-0.000024
 91,0.00002433,-0.00032023,0.00001637,0.00029583,0.00021144,0.00009370,
 -0.00010972,0.00032397,-0.00011052,-0.00013537,-0.00005482,0.00003603,
 0.00013608,-0.00001072,-0.00002036,-0.00012793,0.00000309,-0.00001814,
 -0.00004312,-0.00023100,-0.00089296,-0.00067256,-0.00015773,0.00026480
 ,0.00026899,0.00016848,0.00019701,-0.00000558,-0.00013004,-0.00001557,
 0.00004371,0.00011924,-0.00001604,-0.00011170,0.00002391,-0.00000721,-
 0.00000966,0.00001612,0.00005615,0.00007963,0.00002564,-0.00002266,-0.
 00003823,-0.00000897,-0.00002068,-0.00001544,-0.00363046,-0.00069211,0
 .00029108,0.00097074,0.00190400,-0.00220144,-0.00056287,0.00005878,0.0
 0007681,-0.00001155,0.00007087,0.00002457,0.00001655,-0.00004863,-0.00
 002002,-0.00000939,-0.00004069,-0.00001307,0.00017127,0.00000301,0.000
 04768,-0.00016578,0.00001974,-0.00003707,-0.00004473,-0.00001940,-0.00
 001695,-0.00016178,0.00005589,-0.00006101,0.00007029,-0.00000859,0.000
 00532,0.00008820,0.00001554,0.00002354,-0.00006152,-0.00000425,0.00007
 552,0.00004462,-0.00000892,-0.00005893,0.00001779,0.00000538,-0.000035
 81,-0.00011440,0.00008386,-0.00004511,0.00005097,-0.00001896,0.0000048
 8,0.00004027,-0.00005975,0.00003121,-0.00014759,-0.00003884,-0.0000055
 9,0.00003069,-0.00000981,-0.00000282,0.00015939,-0.00001127,0.00002923
 ,-0.13704799,-0.19506093,0.08312167,0.15144557,-0.00013074,-0.00031939
 ,-0.00063318,-0.00073681,0.00051115,-0.00042470,0.00015148,0.00014168,
 0.00059941,-0.00045166,0.00000118,-0.00066847,0.00020116,-0.00011664,0
 .00024780,-0.00040353,0.00013980,0.00005443,0.00009958,0.00008364,0.00
 001928,0.00045015,-0.00016760,0.00051889,0.00002935,0.00017193,0.00020
 435,0.00064858,-0.00019860,0.00024494,-0.00034224,-0.00032317,-0.00013
 224,-0.00001367,-0.00004596,-0.00008462,-0.00008560,-0.00116305,0.0020
 3353,0.00022417,0.00190907,-0.00026121,0.00048239,-0.00030364,-0.00191
 706,0.00007802,-0.00000589,0.00002855,-0.00003506,0.00000372,-0.000008
 16,-0.00002952,-0.00000342,-0.00000361,-0.00000020,-0.00005009,0.00007
 669,0.00000482,0.00003314,-0.00003375,0.00000688,0.00001218,-0.0000250
 9,-0.00000616,-0.00006923,0.00020956,-0.00000695,-0.00001280,-0.000247
 03,-0.00002204,0.00001841,-0.00003297,0.00004328,-0.00009211,-0.000021
 82,-0.00005123,0.00005000,0.00001599,0.00000522,0.00006858,0.00002131,
 -0.00009227,-0.00018681,-0.00019571,0.00002449,0.00017691,0.00009561,0
 .00003927,0.00003015,0.00010843,0.00016015,0.00005720,0.00004930,-0.00
 007213,-0.00000615,-0.00004348,-0.00009065,-0.00002264,0.00000186,0.00
 016893,-0.00000979,-0.00001723,-0.00013354,0.00004230,0.00001384,-0.00
 004234,0.00001264,0.00001494,0.00006804,-0.00049461,-0.00012878,0.0000
 6977,0.00020089,0.00028481,-0.00019316,0.00042696,-0.00016775,0.000014
 27,-0.00006624,0.00011831,-0.00001402,0.00002361,-0.00009882,-0.000017
 67,0.00004381,-0.00006007,-0.00070502,0.00003576,0.00078547,0.00023987
 ,0.00033225,-0.00009618,0.00020717,-0.00026195,-0.00024031,-0.00003654
 ,0.00002156,0.00015969,0.00002828,-0.00003478,-0.00012012,0.00000562,0
 .00001244,-0.00004410,0.00006166,0.00000882,0.00010538,-0.00001551,-0.
 00001135,-0.00005036,-0.00002781,-0.00000866,-0.00002155,0.00170584,0.
 00166261,-0.00286671,0.00049476,0.00109351,0.00101826,-0.00116208,-0.0
 0203975,-0.00106270,0.00007279,0.00006966,0.00006707,-0.00003629,-0.00
 004337,-0.00003923,-0.00004688,-0.00002970,-0.00003242,0.00015919,-0.0
 0007238,-0.00000144,-0.00017880,0.00007212,-0.00000173,-0.00004048,0.0
 0000405,-0.00001475,0.00058962,0.00120167,-0.00012630,-0.00008127,-0.0
 0025950,-0.00021427,-0.00007195,-0.00026996,0.00029169,-0.00001222,-0.
 00011270,-0.00001837,0.00001437,0.00008611,0.00003837,0.00000167,0.000
 06052,-0.00001658,0.00015351,0.00019525,0.00014903,0.00000740,-0.00007
 108,-0.00000273,-0.00010724,-0.00000386,-0.00003541,-0.00003036,0.0001
 5692,0.00008863,0.00002082,-0.00004130,-0.00002573,-0.00001167,-0.0001
 1507,-0.00007251,-0.21162832,-0.32376690,0.16190066,0.21970507,0.33535
 398,-0.00009300,-0.00039199,0.00016770,-0.00004753,-0.00013881,0.00038
 670,0.00008042,0.00015271,-0.00024788,-0.00022892,-0.00007475,-0.00016
 434,0.00002584,0.00011686,-0.00012267,0.00010100,-0.00000470,0.0002765
 5,-0.00009889,-0.00001719,0.00004988,0.00015895,0.00002139,0.00005833,
 0.00000336,0.00020833,-0.00011424,0.00009551,0.00009164,-0.00018195,0.
 00009373,0.00000592,0.00033283,-0.00005826,-0.00005703,-0.00002478,-0.
 00062913,0.00146776,0.00388785,0.00122920,0.00116993,-0.00428479,0.001
 26687,-0.00205722,-0.00098643,0.00002234,0.00004930,-0.00007662,-0.000
 02985,-0.00002829,0.00002132,-0.00000378,-0.00001024,0.00002747,0.0000
 8962,0.00009242,0.00008703,-0.00007250,-0.00002120,-0.00001088,0.00001
 078,-0.00002382,-0.00002039,-0.00006020,0.00029840,0.00065450,0.000112
 42,-0.00043730,-0.00072970,-0.00010585,-0.00013161,-0.00008519,0.00000
 266,0.00000347,-0.00010248,-0.00002099,-0.00000360,0.00006830,-0.00000
 184,0.00000421,0.00005597,0.00021638,-0.00015339,0.00002870,-0.0002593
 4,0.00012849,-0.00002618,-0.00004335,0.00007156,-0.00001903,-0.0000285
 1,0.00002495,-0.00015617,0.00000525,-0.00003482,0.00007652,0.00002481,
 0.00002085,0.00009641,-0.00011586,-0.00003197,-0.00014946,0.00010860,0
 .00002648,0.00012059,0.00003266,0.00000688,0.00002911,0.00044218,-0.00
 029508,0.00053659,-0.00000811,0.00025032,-0.00019616,-0.00051057,0.000
 23830,-0.00067125,0.00009155,0.00008337,0.00003435,-0.00003879,-0.0000
 2323,-0.00002652,-0.00002358,-0.00007024,0.00000730,-0.00045761,0.0006
 3463,-0.00048112,0.00013685,0.00000108,0.00003141,-0.00017349,0.000038
 78,0.00030120,-0.00001018,0.00021143,0.00001759,-0.00001876,-0.0000875
 1,0.00002083,-0.00000337,-0.00007185,-0.00001997,0.00005519,0.00008019
 ,-0.00001350,-0.00002564,-0.00003644,-0.00000001,-0.00002939,-0.000024
 53,0.00001040,-0.00258415,-0.00569147,-0.00105959,-0.00071470,0.001624
 84,-0.00122493,0.00172885,0.00185179,0.00108084,0.00002735,0.00002086,
 -0.00009070,-0.00000614,0.00001787,0.00006777,-0.00003177,-0.00003363,
 0.00003198,0.00012498,0.00001213,-0.00005941,-0.00013912,-0.00000122,0
 .00002248,-0.00002851,-0.00001420,0.00001744,-0.00060666,-0.00140060,-
 0.00020491,0.00005009,0.00022062,0.00040159,0.00007652,0.00035707,-0.0
 0016055,0.00009644,0.00002629,0.00014860,-0.00009784,-0.00004536,-0.00
 017745,-0.00003978,-0.00002712,-0.00002546,-0.00011593,-0.00009414,-0.
 00032361,-0.00001372,0.00002924,0.00006337,0.00005694,-0.00005198,0.00
 009125,0.00004221,0.00007700,-0.00015813,-0.00000904,-0.00003224,0.000
 03212,-0.00001459,-0.00007254,0.00014275,0.11961023,0.20335265,-0.1387
 2325,-0.09710615,-0.17150387,0.13179333,0.00013176,-0.00027526,-0.0001
 4051,-0.00001992,-0.00007356,-0.00011349,0.00002856,0.00007204,0.00010
 745,-0.00004239,-0.00010979,-0.00017943,-0.00004501,0.00008775,0.00002
 960,-0.00003904,-0.00006099,-0.00000380,-0.00001503,-0.00000906,-0.000
 01735,0.00006723,0.00002173,0.00011594,-0.00012797,0.00019246,0.000058
 83,0.00000294,0.00011620,0.00015296,-0.00000763,-0.00005070,-0.0000152
 9,-0.00000825,-0.00002136,-0.00003051,0.00014593,0.00103490,0.00097896
 ,-0.00027915,-0.00067365,-0.00144019,0.00049534,-0.00042166,-0.0000226
 2,0.00000819,0.00002870,0.00001037,-0.00000646,-0.00001613,-0.00000710
 ,-0.00000377,-0.00001163,-0.00000239,-0.00004624,0.00001726,0.00002672
 ,0.00003634,-0.00001322,-0.00002312,0.00001268,-0.00000409,-0.00000841
 ,-0.00013404,0.00003280,0.00009286,0.00011068,-0.00007560,-0.00012988,
 0.00001855,-0.00001079,-0.00000005,0.00004785,0.00002327,0.00002401,-0
 .00001907,-0.00001865,-0.00001797,-0.00003532,-0.00001089,-0.00001924,
 0.00003808,0.00001793,0.00011527,-0.00001061,-0.00001907,-0.00005455,-
 0.00001211,0.00000489,-0.00005810,0.00000711,0.00005110,0.00001509,-0.
 00000975,-0.00001706,-0.00000587,-0.00000368,-0.00003141,-0.00001123,0
 .00003147,0.00005315,0.00000174,-0.00003514,-0.00004753,-0.00000391,-0
 .00001525,-0.00001759,0.00000404,-0.00000811,0.00001377,0.00014951,0.0
 0002826,-0.00000642,-0.00010344,-0.00002517,0.00001489,-0.00008790,-0.
 00001381,0.00002578,0.00004475,-0.00000577,-0.00001254,-0.00003737,0.0
 0000068,-0.00001338,-0.00001359,-0.00047327,-0.00027518,-0.00020584,0.
 00009612,0.00034882,0.00018215,0.00007851,0.00006020,-0.00001972,-0.00
 005960,0.00002404,0.00002871,0.00004022,-0.00001805,-0.00004461,0.0000
 1241,-0.00001184,-0.00000801,0.00000554,0.00002463,0.00002866,0.000009
 11,-0.00001098,-0.00001548,-0.00000294,-0.00000913,-0.00000783,0.00008
 708,0.00137224,0.00002837,0.00059624,-0.00037420,0.00000938,-0.0002370
 1,-0.00028223,-0.00005777,-0.00000520,0.00003282,0.00002072,0.00000674
 ,-0.00002492,-0.00001681,-0.00000285,-0.00001504,-0.00000820,0.0000428
 6,0.00001321,0.00002454,-0.00003530,-0.00000405,-0.00001276,-0.0000138
 5,-0.00000758,-0.00000830,0.00003089,0.00027135,0.,0.00002214,-0.00004
 256,-0.00005453,0.00003921,-0.00006168,0.00004022,-0.00001696,0.000017
 40,0.00005881,0.00000493,-0.00002098,-0.00005632,0.00000274,-0.0000094
 7,-0.00001605,-0.00002841,0.00005696,0.00002343,0.00002595,-0.00001709
 ,-0.00000315,0.00000705,-0.00001835,0.00000217,-0.00007173,0.00000208,
 0.00001196,0.00001738,-0.00000735,-0.00000462,0.00006010,-0.00001825,-
 0.00000190,-0.21158363,-0.13575527,-0.21225353,-0.01352472,-0.00812703
 ,-0.02215628,0.22304715,-0.00011031,-0.00001694,-0.00015553,-0.0001394
 3,0.00012701,-0.00006899,0.00006457,0.00003584,0.00014434,-0.00017705,
 0.00003041,-0.00022395,0.00009718,-0.00005831,0.00007784,-0.00006222,0
 .00001951,-0.00002031,-0.00001604,0.00000891,0.00000510,0.00017329,-0.
 00005371,0.00017404,0.00006456,0.00001201,0.00005939,0.00014033,-0.000
 04652,0.00005882,-0.00010171,-0.00006312,-0.00005848,-0.00001575,-0.00
 001980,-0.00003301,0.00017199,0.00000383,-0.00043872,-0.00006156,-0.00
 088495,-0.00020527,-0.00044186,0.00021515,-0.00017998,0.00003752,-0.00
 000216,0.00001201,-0.00001739,0.00000077,-0.00000320,-0.00001548,-0.00
 000215,-0.00000116,0.00002027,-0.00001290,0.00004443,-0.00001432,0.000
 01063,-0.00001318,0.00000196,0.00000366,-0.00001532,0.00004300,-0.0000
 1319,0.00010881,-0.00004743,-0.00000159,-0.00008994,-0.00002238,-0.000
 00409,-0.00003767,0.00003354,-0.00003719,-0.00000784,-0.00002516,0.000
 01641,0.00000336,-0.00001188,0.00002988,0.00000835,0.00003482,-0.00012
 698,-0.00002058,-0.00006870,0.00009131,-0.00001376,0.00000196,0.000052
 25,0.00002772,0.00007399,0.00002118,0.00002305,-0.00003224,-0.00000202
 ,-0.00002046,-0.00003974,-0.00000918,-0.00000005,0.00007568,0.00000109
 ,-0.00000668,-0.00005811,0.00000868,0.00000311,-0.00002176,0.00000338,
 0.00000752,0.00009958,-0.00011041,0.00016597,-0.00001984,0.00013648,-0
 .00010818,-0.00006554,0.00002034,-0.00013297,0.00002381,-0.00001656,0.
 00005062,-0.00001261,0.00000558,-0.00003980,-0.00001119,0.00001140,-0.
 00002380,0.00014526,0.00049782,0.00055242,0.00014283,-0.00023428,-0.00
 028327,-0.00001490,-0.00016197,-0.00008111,0.00000545,0.00002549,0.000
 07491,-0.00000602,-0.00001784,-0.00003885,0.00000081,0.00000165,-0.000
 02355,0.00003277,0.00000819,0.00004156,-0.00001329,-0.00000681,-0.0000
 2119,-0.00001632,-0.00000549,-0.00000998,0.00142383,0.00135091,-0.0003
 7580,-0.00044597,-0.00105895,0.00115010,-0.00023007,-0.00060646,-0.000
 00389,0.00003978,0.00003038,0.00002799,-0.00001970,-0.00001765,-0.0000
 1543,-0.00002373,-0.00001230,-0.00001312,0.00007685,-0.00002491,-0.000
 00017,-0.00008210,0.00002380,-0.00000045,-0.00001985,0.00000127,-0.000
 00615,0.00027395,0.00046041,-0.00003979,-0.00005689,-0.00010463,-0.000
 08865,-0.00006387,-0.00011399,0.00010668,0.00001663,-0.00003977,0.0000
 3498,-0.00001710,0.00001747,-0.00003819,-0.00000768,0.00001826,-0.0000
 1171,0.00008927,0.00007272,0.00006184,-0.00001065,-0.00003221,0.000001
 01,-0.00005355,0.00000256,-0.00001706,0.00002255,0.00009674,0.00003582
 ,0.00000549,-0.00002442,-0.00001012,-0.00004071,-0.00005287,-0.0000288
 5,-0.11859626,-0.09011006,-0.09784412,-0.02628876,-0.01144228,-0.03027
 531,0.14624377,0.10313021,-0.00000302,-0.00002121,0.00000443,-0.000009
 71,-0.00002975,-0.00001636,0.00001660,0.00003122,-0.00000257,-0.000012
 96,-0.00003816,-0.00003267,-0.00001114,0.00001964,-0.00000504,-0.00002
 593,-0.00002577,0.00005778,-0.00002133,-0.00000654,0.00000519,0.000026
 39,0.00001222,0.00000968,0.00000929,0.00003072,-0.00001613,0.00000976,
 0.00000607,-0.00000253,-0.00000212,-0.00001402,0.00005019,-0.00000993,
 -0.00000727,0.00000003,0.00014936,-0.00041155,-0.00039621,-0.00026609,
 0.00036001,0.00083528,-0.00028774,-0.00002164,-0.00023438,0.00000617,0
 .00000918,-0.00001848,-0.00000643,-0.00000588,0.00000592,-0.00000221,-
 0.00000182,0.00000737,0.00002486,0.00001803,0.00000464,-0.00001846,-0.
 00000476,0.00000425,-0.00000278,-0.00000681,-0.00000165,0.00007930,0.0
 0003982,-0.00000287,-0.00007063,-0.00000919,0.00005230,-0.00001486,-0.
 00001401,-0.00001972,0.00000336,-0.00000031,-0.00003078,-0.00000561,-0
 .00000106,0.00001742,-0.00000263,0.00000122,0.00001810,0.00004157,0.00
 000766,0.00001595,-0.00002503,-0.00000862,-0.00001108,-0.00002252,0.00
 000003,-0.00001297,0.00000053,0.00000354,-0.00003369,0.00000028,-0.000
 00664,0.00001628,-0.00000025,0.00000523,0.00002280,-0.00001749,-0.0000
 0907,-0.00004431,0.00001433,0.00000680,0.00003543,0.00000722,0.0000036
 3,0.00001178,0.00002879,0.00005322,-0.00002002,-0.00004630,-0.00006176
 ,0.00001693,0.00001578,-0.00002253,0.00005803,0.00001962,0.00002139,-0
 .00000113,-0.00000721,-0.00000622,-0.00000025,-0.00000477,-0.00001734,
 0.00000493,0.00015294,0.00032197,-0.00001619,0.00001744,-0.00025023,-0
 .00001793,-0.00002135,-0.00001109,0.00009304,0.00001340,0.00002696,-0.
 00000540,-0.00000833,-0.00000900,0.00001119,-0.00000282,-0.00001037,-0
 .00000061,0.00001059,0.00001613,-0.00000895,-0.00000670,-0.00000669,0.
 00000247,-0.00000674,-0.00000532,0.00000339,-0.00033908,-0.00063098,-0
 .00061400,0.00008241,0.00099888,0.00003680,0.00005673,0.00018950,-0.00
 012961,0.00000908,0.00000253,-0.00002045,-0.00000368,0.00000457,0.0000
 1521,-0.00000714,-0.00000618,0.00000710,0.00002621,0.00000596,-0.00001
 638,-0.00002769,-0.00000347,0.00000601,-0.00000593,-0.00000319,0.00000
 565,-0.00006937,-0.00017460,-0.00007601,0.00000857,0.00003406,0.000067
 93,0.00002171,0.00006146,0.00002183,0.00002474,0.00001773,0.00001311,-
 0.00001859,-0.00001446,-0.00001039,-0.00000819,-0.00000921,-0.00000371
 ,-0.00001009,-0.00001170,-0.00006132,-0.00000455,0.00000261,0.00001710
 ,0.00000515,-0.00000835,0.00001705,0.00002092,0.00002811,-0.00003432,-
 0.00000464,-0.00000837,0.00000740,-0.00001580,-0.00001920,0.00002506,-
 0.25016505,-0.13926207,-0.30227052,0.01496623,0.01141782,0.01152087,0.
 23588153,0.12223048,0.29456165\\0.03907843,0.01139690,-0.01283636,0.00
 150846,-0.00084612,-0.02165479,-0.00616084,0.01429429,0.02305571,-0.00
 645437,-0.00310091,-0.03255818,-0.01201453,0.01576565,0.03941277,0.005
 08284,-0.00285950,0.01141020,0.01254446,-0.02129090,-0.00401910,-0.010
 55587,0.00392218,0.01466177,0.00369789,-0.02697951,0.00454983,-0.03546
 588,0.03149049,-0.01313839,-0.00334129,-0.01065771,0.00033329,0.006573
 25,-0.01334029,-0.00910967,0.01631839,-0.00201474,0.01166346,-0.005149
 14,-0.00984461,-0.00495306,-0.01714685,0.01459624,-0.00995374,-0.00816
 222,0.00074596,-0.00839625,0.01048413,-0.00732592,0.01365720,0.0143382
 0,0.01425123,-0.00582594,-0.03406739,0.01114281,-0.00462289,0.01942340
 ,-0.00960676,-0.00461881,0.00113684,0.00396088,0.00997111,-0.01602790,
 -0.01063485,0.00695422,0.00164096,-0.00283594,-0.01383942,0.01162980,0
 .01045155,0.00661289,0.01166574,0.00651561,-0.01798151,-0.00271673,0.0
 0624734,0.01171635,-0.00367342,-0.01064966,-0.00125037,0.01810617,-0.0
 0716377,-0.00509810,-0.01152350,0.01318286,0.00079370,-0.00273908,-0.0
 0602519,0.00403037,-0.00762609,0.00727852,-0.00718029,0.00918740,-0.00
 970571,0.01621646,0.00238257,-0.00710533,-0.01771645,-0.00975630,0.015
 22715,-0.00018991,-0.00388985,-0.02206854,-0.00402118,0.01029074,-0.00
 311394,-0.00253486,0.01392520,0.00115479,0.00775320,-0.01560201,-0.018
 98908,0.00107095,-0.00596441,0.01235168,-0.00540880,0.00573037,-0.0256
 0613,0.02248550,0.00300716,-0.00465850,-0.01161317,0.00036803,0.022326
 92,-0.00874398,0.00860497,-0.00199472,-0.00189877,-0.01777177,-0.00806
 223,0.00866487,0.00216092,0.00751907,-0.00304223,-0.01432546,0.0023051
 8,0.00288682,0.00869104,0.00255386,-0.01154348,0.00609210,-0.00122445,
 0.00846951,-0.00124918,0.00085937,-0.00728411,-0.02432692,0.01154670,0
 .00945840,0.02472658,0.01177004,0.00284786,0.00892777,-0.02401735,0.00
 220818,-0.01157101,-0.00298459,-0.00592806,0.00789162,0.02200708,0.000
 32447,-0.00488879,0.02583224,0.02001752,0.00651912,-0.00500403,-0.0115
 7224,-0.00141317,-0.00724351,0.00338411,0.02225980,-0.00823587,-0.0166
 8984,-0.01332985,-0.00358235,0.00498939,0.00822571,0.00745198,0.003493
 88,0.00891295,-0.01179777,-0.00024397,-0.00034222,0.01069852,0.0114434
 8,-0.01123792,0.00280865,-0.02833021,-0.00331914,-0.00561388,0.0165755
 3,-0.01031247,-0.00570295,-0.01471440,0.00550307,0.00689127,0.00608233
 ,-0.01346307,-0.00759439,-0.00514061,-0.00414621,0.01993754,-0.0052224
 2,0.01153539,-0.00394759,0.00577239,-0.01340192,0.00102729,-0.00886617
 ,0.00016371,0.00605228,0.00665362,0.01266255,-0.00780811,0.00473768,0.
 00583663,-0.02193737,0.00858324,0.00449718,0.01498661,-0.00572780,-0.0
 1237504,0.00686104,-0.00995388\\\@


 ...THE PHYSICISTS HAVE MADE THEIR UNIVERSE, AND IF YOU DO NOT LIKE
 IT, YOU MUST MAKE YOUR OWN.
                               -- E. R. HARRISON IN "COSMOLOGY" (1980)
 Job cpu time:       1 days 18 hours  3 minutes 32.4 seconds.
 Elapsed time:       0 days  1 hours 19 minutes 30.4 seconds.
 File lengths (MBytes):  RWF=   4234 Int=      0 D2E=      0 Chk=     43 Scr=      1
 Normal termination of Gaussian 16 at Fri Sep 16 18:24:32 2022.
