 Entering Gaussian System, Link 0=/shared/gaussian/g16.b01/AVX2/g16/g16
 Input=snap009.S0.com
 Output=snap009.S0.log
 Initial command:
 /shared/gaussian/g16.b01/AVX2/g16/l1.exe "/scratch/giacomo/Gauscr/Gau-17911.inp" -scrdir="/scratch/giacomo/Gauscr/"
 Entering Link 1 = /shared/gaussian/g16.b01/AVX2/g16/l1.exe PID=     17912.
  
 Copyright (c) 1988-2017, Gaussian, Inc.  All Rights Reserved.
  
 This is part of the Gaussian(R) 16 program.  It is based on
 the Gaussian(R) 09 system (copyright 2009, Gaussian, Inc.),
 the Gaussian(R) 03 system (copyright 2003, Gaussian, Inc.),
 the Gaussian(R) 98 system (copyright 1998, Gaussian, Inc.),
 the Gaussian(R) 94 system (copyright 1995, Gaussian, Inc.),
 the Gaussian 92(TM) system (copyright 1992, Gaussian, Inc.),
 the Gaussian 90(TM) system (copyright 1990, Gaussian, Inc.),
 the Gaussian 88(TM) system (copyright 1988, Gaussian, Inc.),
 the Gaussian 86(TM) system (copyright 1986, Carnegie Mellon
 University), and the Gaussian 82(TM) system (copyright 1983,
 Carnegie Mellon University). Gaussian is a federally registered
 trademark of Gaussian, Inc.
  
 This software contains proprietary and confidential information,
 including trade secrets, belonging to Gaussian, Inc.
  
 This software is provided under written license and may be
 used, copied, transmitted, or stored only in accord with that
 written license.
  
 The following legend is applicable only to US Government
 contracts under FAR:
  
                    RESTRICTED RIGHTS LEGEND
  
 Use, reproduction and disclosure by the US Government is
 subject to restrictions as set forth in subparagraphs (a)
 and (c) of the Commercial Computer Software - Restricted
 Rights clause in FAR 52.227-19.
  
 Gaussian, Inc.
 340 Quinnipiac St., Bldg. 40, Wallingford CT 06492
  
  
 ---------------------------------------------------------------
 Warning -- This program may not be used in any manner that
 competes with the business of Gaussian, Inc. or will provide
 assistance to any competitor of Gaussian, Inc.  The licensee
 of this program is prohibited from giving any competitor of
 Gaussian, Inc. access to this program.  By using this program,
 the user acknowledges that Gaussian, Inc. is engaged in the
 business of creating and licensing software in the field of
 computational chemistry and represents and warrants to the
 licensee that it is not a competitor of Gaussian, Inc. and that
 it will not use this program in any manner prohibited above.
 ---------------------------------------------------------------
  

 Cite this work as:
 Gaussian 16, Revision B.01,
 M. J. Frisch, G. W. Trucks, H. B. Schlegel, G. E. Scuseria, 
 M. A. Robb, J. R. Cheeseman, G. Scalmani, V. Barone, 
 G. A. Petersson, H. Nakatsuji, X. Li, M. Caricato, A. V. Marenich, 
 J. Bloino, B. G. Janesko, R. Gomperts, B. Mennucci, H. P. Hratchian, 
 J. V. Ortiz, A. F. Izmaylov, J. L. Sonnenberg, D. Williams-Young, 
 F. Ding, F. Lipparini, F. Egidi, J. Goings, B. Peng, A. Petrone, 
 T. Henderson, D. Ranasinghe, V. G. Zakrzewski, J. Gao, N. Rega, 
 G. Zheng, W. Liang, M. Hada, M. Ehara, K. Toyota, R. Fukuda, 
 J. Hasegawa, M. Ishida, T. Nakajima, Y. Honda, O. Kitao, H. Nakai, 
 T. Vreven, K. Throssell, J. A. Montgomery, Jr., J. E. Peralta, 
 F. Ogliaro, M. J. Bearpark, J. J. Heyd, E. N. Brothers, K. N. Kudin, 
 V. N. Staroverov, T. A. Keith, R. Kobayashi, J. Normand, 
 K. Raghavachari, A. P. Rendell, J. C. Burant, S. S. Iyengar, 
 J. Tomasi, M. Cossi, J. M. Millam, M. Klene, C. Adamo, R. Cammi, 
 J. W. Ochterski, R. L. Martin, K. Morokuma, O. Farkas, 
 J. B. Foresman, and D. J. Fox, Gaussian, Inc., Wallingford CT, 2016.
 
 ******************************************
 Gaussian 16:  ES64L-G16RevB.01 20-Dec-2017
                17-Sep-2022 
 ******************************************
 %Nproc=32
 Will use up to   32 processors via shared memory.
 %Mem=120Gb
 %chk=temp.chk
 -------------------------------------------
 #p cam-b3lyp/6-31+G(d,p) nosymm charge Freq
 -------------------------------------------
 1/10=4,18=10,28=-2,30=1,38=1,125=101/1,3;
 2/12=2,15=1,17=6,18=5,40=1/2;
 3/5=1,6=6,7=111,11=2,25=1,30=1,71=2,74=-40,140=1/1,2,3;
 4//1;
 5/5=2,38=5,98=1/2;
 8/6=4,10=90,11=11/1;
 11/6=1,8=1,9=11,15=111,16=1,31=1/1,2,10;
 10/6=1,31=1/2;
 6/7=2,8=2,9=2,10=2,28=1/1;
 7/8=1,10=1,16=-2,25=1,30=1/1,2,3,16;
 1/10=4,18=10,28=-2,30=1/3;
 99//99;
 Leave Link    1 at Sat Sep 17 03:25:47 2022, MaxMem= 16106127360 cpu:               1.9 elap:               0.1
 (Enter /shared/gaussian/g16.b01/AVX2/g16/l101.exe)
 ------------------------------------------
 Calculation for S0 with freq for abs spect
 ------------------------------------------
 Symbolic Z-matrix:
 Charge =  0 Multiplicity = 1
 C                     16.35252   17.46304   15.5063 
 C                     17.42944   17.26132   17.72234 
 C                     17.0246   15.98715   17.7775 
 C                     16.15601   15.36082   16.78836 
 N                     15.82175   16.19882   15.7257 
 H                     18.10707   17.77352   18.37535 
 H                     17.41632   15.47824   18.63099 
 O                     15.64376   14.26501   16.95135 
 O                     16.00563   18.13341   14.57121 
 N                     17.15087   17.96098   16.55332 
 H                     17.4677   18.93719   16.54888 
 H                     15.09513   15.82649   15.03133 
 O                     18.2566   20.58962   16.44643 
 H                     18.51648   21.45286   16.76817 
 H                     19.07216   20.19131   16.14239 
 O                     21.11759   17.77741   18.56041 
 H                     21.90432   18.2592   18.81569 
 H                     20.66239   17.607    19.38502 
 O                     14.01331   13.50749   20.15532 
 H                     13.68925   12.98143   19.42424 
 H                     14.14586   14.37944   19.78335 
 O                     18.09887   19.0831   13.15228 
 H                     18.71524   18.44704   12.78933 
 H                     17.32144   18.56793   13.36777 
 O                     12.99415   15.18897   14.13196 
 H                     12.62716   14.3248   13.94552 
 H                     12.43169   15.79713   13.65237 
 O                     16.89895   11.62532   16.8781 
 H                     17.106    11.61537   17.81258 
 H                     16.34645   12.39844   16.76293 
 O                     15.15887   17.80186   11.42281 
 H                     15.01379   18.26047   12.25037 
 H                     14.92474   18.4411   10.74993 
 O                     16.748    17.65214   21.27782 
 H                     16.3785   17.91527   20.43492 
 H                     17.68459   17.55091   21.10817 
 O                     15.41669   21.55874   18.10057 
 H                     16.298    21.63309   17.73451 
 H                     14.93499   21.03337   17.46168 
 O                     12.17478   16.31788   16.68874 
 H                     11.55931   15.59332   16.80021 
 H                     12.6095   16.13743   15.85526 
 O                     20.52454   19.5475   15.70266 
 H                     20.65183   19.16364   16.57023 
 H                     21.22009   19.16599   15.16703 
 O                     20.94349   15.19571   17.25764 
 H                     20.99846   16.15087   17.2871 
 H                     20.53839   14.95285   18.09019 
 O                     13.963    16.20604   19.17725 
 H                     13.43021   16.75244   19.75502 
 H                     13.52437   16.256    18.32793 
 O                     18.26778   13.49668   14.58762 
 H                     17.5331   13.93732   14.16065 
 H                     17.87993   13.06795   15.35051 
 O                     19.50233   14.69236   19.72249 
 H                     18.67753   14.38473   20.09838 
 H                     20.1709   14.40812   20.34576 
 O                     14.32943   19.5564   16.69697 
 H                     13.54473   19.37726   17.21504 
 H                     14.36112   18.8462   16.056 
 O                     16.50366   21.50139   14.53418 
 H                     16.53343   20.89652   13.79292 
 H                     17.32744   21.35278   14.99843 
 O                     15.76589   14.33448   13.30646 
 H                     14.86247   14.45349   13.01335 
 H                     16.05085   13.52468   12.88308 
 
 ITRead=  0  0  0  0  0  0  0  0  0  0  0  0  0  0  0  0  0  0  0  0
 ITRead=  0  0  0  0  0  0  0  0  0  0  0  0  0  0  0  0  0  0  0  0
 ITRead=  0  0  0  0  0  0  0  0  0  0  0  0  0  0  0  0  0  0  0  0
 ITRead=  0  0  0  0  0  0
 MicOpt= -1 -1 -1 -1 -1 -1 -1 -1 -1 -1 -1 -1 -1 -1 -1 -1 -1 -1 -1 -1
 MicOpt= -1 -1 -1 -1 -1 -1 -1 -1 -1 -1 -1 -1 -1 -1 -1 -1 -1 -1 -1 -1
 MicOpt= -1 -1 -1 -1 -1 -1 -1 -1 -1 -1 -1 -1 -1 -1 -1 -1 -1 -1 -1 -1
 MicOpt= -1 -1 -1 -1 -1 -1
 NAtoms=     66 NQM=       66 NQMF=       0 NMMI=      0 NMMIF=      0
                NMic=       0 NMicF=      0.
                    Isotopes and Nuclear Properties:
 (Nuclear quadrupole moments (NQMom) in fm**2, nuclear magnetic moments (NMagM)
  in nuclear magnetons)

  Atom         1           2           3           4           5           6           7           8           9          10
 IAtWgt=          12          12          12          12          14           1           1          16          16          14
 AtmWgt=  12.0000000  12.0000000  12.0000000  12.0000000  14.0030740   1.0078250   1.0078250  15.9949146  15.9949146  14.0030740
 NucSpn=           0           0           0           0           2           1           1           0           0           2
 AtZEff=  -0.0000000  -0.0000000  -0.0000000  -0.0000000  -0.0000000  -0.0000000  -0.0000000  -0.0000000  -0.0000000  -0.0000000
 NQMom=    0.0000000   0.0000000   0.0000000   0.0000000   2.0440000   0.0000000   0.0000000   0.0000000   0.0000000   2.0440000
 NMagM=    0.0000000   0.0000000   0.0000000   0.0000000   0.4037610   2.7928460   2.7928460   0.0000000   0.0000000   0.4037610
 AtZNuc=   6.0000000   6.0000000   6.0000000   6.0000000   7.0000000   1.0000000   1.0000000   8.0000000   8.0000000   7.0000000

  Atom        11          12          13          14          15          16          17          18          19          20
 IAtWgt=           1           1          16           1           1          16           1           1          16           1
 AtmWgt=   1.0078250   1.0078250  15.9949146   1.0078250   1.0078250  15.9949146   1.0078250   1.0078250  15.9949146   1.0078250
 NucSpn=           1           1           0           1           1           0           1           1           0           1
 AtZEff=  -0.0000000  -0.0000000  -0.0000000  -0.0000000  -0.0000000  -0.0000000  -0.0000000  -0.0000000  -0.0000000  -0.0000000
 NQMom=    0.0000000   0.0000000   0.0000000   0.0000000   0.0000000   0.0000000   0.0000000   0.0000000   0.0000000   0.0000000
 NMagM=    2.7928460   2.7928460   0.0000000   2.7928460   2.7928460   0.0000000   2.7928460   2.7928460   0.0000000   2.7928460
 AtZNuc=   1.0000000   1.0000000   8.0000000   1.0000000   1.0000000   8.0000000   1.0000000   1.0000000   8.0000000   1.0000000

  Atom        21          22          23          24          25          26          27          28          29          30
 IAtWgt=           1          16           1           1          16           1           1          16           1           1
 AtmWgt=   1.0078250  15.9949146   1.0078250   1.0078250  15.9949146   1.0078250   1.0078250  15.9949146   1.0078250   1.0078250
 NucSpn=           1           0           1           1           0           1           1           0           1           1
 AtZEff=  -0.0000000  -0.0000000  -0.0000000  -0.0000000  -0.0000000  -0.0000000  -0.0000000  -0.0000000  -0.0000000  -0.0000000
 NQMom=    0.0000000   0.0000000   0.0000000   0.0000000   0.0000000   0.0000000   0.0000000   0.0000000   0.0000000   0.0000000
 NMagM=    2.7928460   0.0000000   2.7928460   2.7928460   0.0000000   2.7928460   2.7928460   0.0000000   2.7928460   2.7928460
 AtZNuc=   1.0000000   8.0000000   1.0000000   1.0000000   8.0000000   1.0000000   1.0000000   8.0000000   1.0000000   1.0000000

  Atom        31          32          33          34          35          36          37          38          39          40
 IAtWgt=          16           1           1          16           1           1          16           1           1          16
 AtmWgt=  15.9949146   1.0078250   1.0078250  15.9949146   1.0078250   1.0078250  15.9949146   1.0078250   1.0078250  15.9949146
 NucSpn=           0           1           1           0           1           1           0           1           1           0
 AtZEff=  -0.0000000  -0.0000000  -0.0000000  -0.0000000  -0.0000000  -0.0000000  -0.0000000  -0.0000000  -0.0000000  -0.0000000
 NQMom=    0.0000000   0.0000000   0.0000000   0.0000000   0.0000000   0.0000000   0.0000000   0.0000000   0.0000000   0.0000000
 NMagM=    0.0000000   2.7928460   2.7928460   0.0000000   2.7928460   2.7928460   0.0000000   2.7928460   2.7928460   0.0000000
 AtZNuc=   8.0000000   1.0000000   1.0000000   8.0000000   1.0000000   1.0000000   8.0000000   1.0000000   1.0000000   8.0000000

  Atom        41          42          43          44          45          46          47          48          49          50
 IAtWgt=           1           1          16           1           1          16           1           1          16           1
 AtmWgt=   1.0078250   1.0078250  15.9949146   1.0078250   1.0078250  15.9949146   1.0078250   1.0078250  15.9949146   1.0078250
 NucSpn=           1           1           0           1           1           0           1           1           0           1
 AtZEff=  -0.0000000  -0.0000000  -0.0000000  -0.0000000  -0.0000000  -0.0000000  -0.0000000  -0.0000000  -0.0000000  -0.0000000
 NQMom=    0.0000000   0.0000000   0.0000000   0.0000000   0.0000000   0.0000000   0.0000000   0.0000000   0.0000000   0.0000000
 NMagM=    2.7928460   2.7928460   0.0000000   2.7928460   2.7928460   0.0000000   2.7928460   2.7928460   0.0000000   2.7928460
 AtZNuc=   1.0000000   1.0000000   8.0000000   1.0000000   1.0000000   8.0000000   1.0000000   1.0000000   8.0000000   1.0000000

  Atom        51          52          53          54          55          56          57          58          59          60
 IAtWgt=           1          16           1           1          16           1           1          16           1           1
 AtmWgt=   1.0078250  15.9949146   1.0078250   1.0078250  15.9949146   1.0078250   1.0078250  15.9949146   1.0078250   1.0078250
 NucSpn=           1           0           1           1           0           1           1           0           1           1
 AtZEff=  -0.0000000  -0.0000000  -0.0000000  -0.0000000  -0.0000000  -0.0000000  -0.0000000  -0.0000000  -0.0000000  -0.0000000
 NQMom=    0.0000000   0.0000000   0.0000000   0.0000000   0.0000000   0.0000000   0.0000000   0.0000000   0.0000000   0.0000000
 NMagM=    2.7928460   0.0000000   2.7928460   2.7928460   0.0000000   2.7928460   2.7928460   0.0000000   2.7928460   2.7928460
 AtZNuc=   1.0000000   8.0000000   1.0000000   1.0000000   8.0000000   1.0000000   1.0000000   8.0000000   1.0000000   1.0000000

  Atom        61          62          63          64          65          66
 IAtWgt=          16           1           1          16           1           1
 AtmWgt=  15.9949146   1.0078250   1.0078250  15.9949146   1.0078250   1.0078250
 NucSpn=           0           1           1           0           1           1
 AtZEff=  -0.0000000  -0.0000000  -0.0000000  -0.0000000  -0.0000000  -0.0000000
 NQMom=    0.0000000   0.0000000   0.0000000   0.0000000   0.0000000   0.0000000
 NMagM=    0.0000000   2.7928460   2.7928460   0.0000000   2.7928460   2.7928460
 AtZNuc=   8.0000000   1.0000000   1.0000000   8.0000000   1.0000000   1.0000000
 Background charge distribution read from input stream:
 Point Charges:
 XYZ=   25.3561   25.3465    7.8428 Q=   -0.8340 A=    0.0000 R=    0.0000 C=    0.0000
 XYZ=   25.4938   26.2513    8.1234 Q=    0.4170 A=    0.0000 R=    0.0000 C=    0.0000
 XYZ=   25.3673   24.8392    8.6544 Q=    0.4170 A=    0.0000 R=    0.0000 C=    0.0000
 XYZ=   23.7457   21.9634    6.3446 Q=   -0.8340 A=    0.0000 R=    0.0000 C=    0.0000
 XYZ=   24.5944   21.5636    6.1546 Q=    0.4170 A=    0.0000 R=    0.0000 C=    0.0000
 XYZ=   23.7127   22.0138    7.2999 Q=    0.4170 A=    0.0000 R=    0.0000 C=    0.0000
 XYZ=    7.5108   19.7422   14.1804 Q=   -0.8340 A=    0.0000 R=    0.0000 C=    0.0000
 XYZ=    6.9819   19.7658   13.3830 Q=    0.4170 A=    0.0000 R=    0.0000 C=    0.0000
 XYZ=    7.6626   20.6626   14.3950 Q=    0.4170 A=    0.0000 R=    0.0000 C=    0.0000
 XYZ=   21.7206   29.6843   18.7964 Q=   -0.8340 A=    0.0000 R=    0.0000 C=    0.0000
 XYZ=   22.6584   29.8231   18.6644 Q=    0.4170 A=    0.0000 R=    0.0000 C=    0.0000
 XYZ=   21.4034   30.5132   19.1548 Q=    0.4170 A=    0.0000 R=    0.0000 C=    0.0000
 XYZ=    5.8801   12.0288   26.4461 Q=   -0.8340 A=    0.0000 R=    0.0000 C=    0.0000
 XYZ=    5.4527   12.4461   27.1941 Q=    0.4170 A=    0.0000 R=    0.0000 C=    0.0000
 XYZ=    6.4926   12.6886   26.1209 Q=    0.4170 A=    0.0000 R=    0.0000 C=    0.0000
 XYZ=   16.0537   25.5272   20.3431 Q=   -0.8340 A=    0.0000 R=    0.0000 C=    0.0000
 XYZ=   16.4131   25.0628   21.0990 Q=    0.4170 A=    0.0000 R=    0.0000 C=    0.0000
 XYZ=   16.1795   26.4536   20.5485 Q=    0.4170 A=    0.0000 R=    0.0000 C=    0.0000
 XYZ=   21.7345   13.9730    4.4596 Q=   -0.8340 A=    0.0000 R=    0.0000 C=    0.0000
 XYZ=   22.1636   13.1405    4.6573 Q=    0.4170 A=    0.0000 R=    0.0000 C=    0.0000
 XYZ=   21.1482   13.7734    3.7298 Q=    0.4170 A=    0.0000 R=    0.0000 C=    0.0000
 XYZ=   23.9841   27.4921   17.4411 Q=   -0.8340 A=    0.0000 R=    0.0000 C=    0.0000
 XYZ=   23.4693   27.9394   16.7695 Q=    0.4170 A=    0.0000 R=    0.0000 C=    0.0000
 XYZ=   24.8456   27.3705   17.0418 Q=    0.4170 A=    0.0000 R=    0.0000 C=    0.0000
 XYZ=   30.7385   17.5291   13.2405 Q=   -0.8340 A=    0.0000 R=    0.0000 C=    0.0000
 XYZ=   30.9261   18.4330   13.4937 Q=    0.4170 A=    0.0000 R=    0.0000 C=    0.0000
 XYZ=   30.0101   17.2683   13.8040 Q=    0.4170 A=    0.0000 R=    0.0000 C=    0.0000
 XYZ=   19.7017   15.6346    5.2753 Q=   -0.8340 A=    0.0000 R=    0.0000 C=    0.0000
 XYZ=   19.8547   16.5668    5.1214 Q=    0.4170 A=    0.0000 R=    0.0000 C=    0.0000
 XYZ=   20.5179   15.2105    5.0103 Q=    0.4170 A=    0.0000 R=    0.0000 C=    0.0000
 XYZ=    7.1592   20.2985   27.2623 Q=   -0.8340 A=    0.0000 R=    0.0000 C=    0.0000
 XYZ=    7.2089   20.0029   26.3532 Q=    0.4170 A=    0.0000 R=    0.0000 C=    0.0000
 XYZ=    7.9446   20.8319   27.3844 Q=    0.4170 A=    0.0000 R=    0.0000 C=    0.0000
 XYZ=   13.8908   20.3994   20.3357 Q=   -0.8340 A=    0.0000 R=    0.0000 C=    0.0000
 XYZ=   14.3379   20.9646   19.7058 Q=    0.4170 A=    0.0000 R=    0.0000 C=    0.0000
 XYZ=   14.4392   20.4327   21.1195 Q=    0.4170 A=    0.0000 R=    0.0000 C=    0.0000
 XYZ=   12.6801   28.9606   18.4392 Q=   -0.8340 A=    0.0000 R=    0.0000 C=    0.0000
 XYZ=   12.9204   28.0376   18.3590 Q=    0.4170 A=    0.0000 R=    0.0000 C=    0.0000
 XYZ=   13.5168   29.4242   18.4756 Q=    0.4170 A=    0.0000 R=    0.0000 C=    0.0000
 XYZ=   10.0134   12.3139   20.7177 Q=   -0.8340 A=    0.0000 R=    0.0000 C=    0.0000
 XYZ=    9.0733   12.1356   20.6916 Q=    0.4170 A=    0.0000 R=    0.0000 C=    0.0000
 XYZ=   10.1223   12.9209   21.4498 Q=    0.4170 A=    0.0000 R=    0.0000 C=    0.0000
 XYZ=   24.6345   27.5813   22.7939 Q=   -0.8340 A=    0.0000 R=    0.0000 C=    0.0000
 XYZ=   24.6488   27.4944   21.8408 Q=    0.4170 A=    0.0000 R=    0.0000 C=    0.0000
 XYZ=   24.9065   28.4845   22.9567 Q=    0.4170 A=    0.0000 R=    0.0000 C=    0.0000
 XYZ=   17.2702   11.3398    9.1347 Q=   -0.8340 A=    0.0000 R=    0.0000 C=    0.0000
 XYZ=   16.4440   11.7491    8.8776 Q=    0.4170 A=    0.0000 R=    0.0000 C=    0.0000
 XYZ=   17.7354   12.0219    9.6189 Q=    0.4170 A=    0.0000 R=    0.0000 C=    0.0000
 XYZ=   14.8132   12.4926    8.8514 Q=   -0.8340 A=    0.0000 R=    0.0000 C=    0.0000
 XYZ=   14.0586   11.9105    8.7618 Q=    0.4170 A=    0.0000 R=    0.0000 C=    0.0000
 XYZ=   14.4543   13.2937    9.2331 Q=    0.4170 A=    0.0000 R=    0.0000 C=    0.0000
 XYZ=   26.3330   18.6661   24.1500 Q=   -0.8340 A=    0.0000 R=    0.0000 C=    0.0000
 XYZ=   26.1059   17.8505   23.7033 Q=    0.4170 A=    0.0000 R=    0.0000 C=    0.0000
 XYZ=   26.6669   18.3877   25.0028 Q=    0.4170 A=    0.0000 R=    0.0000 C=    0.0000
 XYZ=   15.7213    9.7220   21.1081 Q=   -0.8340 A=    0.0000 R=    0.0000 C=    0.0000
 XYZ=   15.4034    9.1227   20.4328 Q=    0.4170 A=    0.0000 R=    0.0000 C=    0.0000
 XYZ=   16.1407    9.1543   21.7547 Q=    0.4170 A=    0.0000 R=    0.0000 C=    0.0000
 XYZ=   24.7308   17.0302   26.8237 Q=   -0.8340 A=    0.0000 R=    0.0000 C=    0.0000
 XYZ=   24.4644   17.5555   27.5782 Q=    0.4170 A=    0.0000 R=    0.0000 C=    0.0000
 XYZ=   25.6853   16.9901   26.8842 Q=    0.4170 A=    0.0000 R=    0.0000 C=    0.0000
 XYZ=   19.0850   21.2956   12.0525 Q=   -0.8340 A=    0.0000 R=    0.0000 C=    0.0000
 XYZ=   18.8288   20.5066   12.5300 Q=    0.4170 A=    0.0000 R=    0.0000 C=    0.0000
 XYZ=   18.4121   21.3979   11.3795 Q=    0.4170 A=    0.0000 R=    0.0000 C=    0.0000
 XYZ=   26.2605   14.1583   16.7041 Q=   -0.8340 A=    0.0000 R=    0.0000 C=    0.0000
 XYZ=   25.8294   14.3959   15.8832 Q=    0.4170 A=    0.0000 R=    0.0000 C=    0.0000
 XYZ=   26.0032   14.8461   17.3181 Q=    0.4170 A=    0.0000 R=    0.0000 C=    0.0000
 XYZ=   23.0100   18.5401   25.2784 Q=   -0.8340 A=    0.0000 R=    0.0000 C=    0.0000
 XYZ=   23.6937   18.0098   25.6878 Q=    0.4170 A=    0.0000 R=    0.0000 C=    0.0000
 XYZ=   23.4047   19.4066   25.1805 Q=    0.4170 A=    0.0000 R=    0.0000 C=    0.0000
 XYZ=   22.9970   25.3115    6.6491 Q=   -0.8340 A=    0.0000 R=    0.0000 C=    0.0000
 XYZ=   22.9176   26.2528    6.4949 Q=    0.4170 A=    0.0000 R=    0.0000 C=    0.0000
 XYZ=   23.8713   25.2025    7.0232 Q=    0.4170 A=    0.0000 R=    0.0000 C=    0.0000
 XYZ=    3.4347   13.4396   14.3108 Q=   -0.8340 A=    0.0000 R=    0.0000 C=    0.0000
 XYZ=    3.6060   14.2001   14.8663 Q=    0.4170 A=    0.0000 R=    0.0000 C=    0.0000
 XYZ=    3.2421   12.7318   14.9258 Q=    0.4170 A=    0.0000 R=    0.0000 C=    0.0000
 XYZ=   28.7555   20.8798   19.9452 Q=   -0.8340 A=    0.0000 R=    0.0000 C=    0.0000
 XYZ=   29.7097   20.9131   20.0133 Q=    0.4170 A=    0.0000 R=    0.0000 C=    0.0000
 XYZ=   28.4987   21.7767   19.7313 Q=    0.4170 A=    0.0000 R=    0.0000 C=    0.0000
 XYZ=   29.3429   15.4609   25.3635 Q=   -0.8340 A=    0.0000 R=    0.0000 C=    0.0000
 XYZ=   28.4701   15.1998   25.6572 Q=    0.4170 A=    0.0000 R=    0.0000 C=    0.0000
 XYZ=   29.5543   14.8451   24.6619 Q=    0.4170 A=    0.0000 R=    0.0000 C=    0.0000
 XYZ=   22.5417    5.5755   15.0044 Q=   -0.8340 A=    0.0000 R=    0.0000 C=    0.0000
 XYZ=   23.2696    6.1406   15.2633 Q=    0.4170 A=    0.0000 R=    0.0000 C=    0.0000
 XYZ=   21.7588    6.0990   15.1754 Q=    0.4170 A=    0.0000 R=    0.0000 C=    0.0000
 XYZ=    8.5914    8.7965   11.3416 Q=   -0.8340 A=    0.0000 R=    0.0000 C=    0.0000
 XYZ=    7.6400    8.7248   11.2655 Q=    0.4170 A=    0.0000 R=    0.0000 C=    0.0000
 XYZ=    8.7364    9.1392   12.2236 Q=    0.4170 A=    0.0000 R=    0.0000 C=    0.0000
 XYZ=   12.5854    5.0799   12.1999 Q=   -0.8340 A=    0.0000 R=    0.0000 C=    0.0000
 XYZ=   13.2967    5.0605   12.8402 Q=    0.4170 A=    0.0000 R=    0.0000 C=    0.0000
 XYZ=   11.8044    5.2827   12.7149 Q=    0.4170 A=    0.0000 R=    0.0000 C=    0.0000
 XYZ=    5.0218    8.4403   19.1122 Q=   -0.8340 A=    0.0000 R=    0.0000 C=    0.0000
 XYZ=    5.4747    7.6782   19.4734 Q=    0.4170 A=    0.0000 R=    0.0000 C=    0.0000
 XYZ=    5.7219    8.9935   18.7658 Q=    0.4170 A=    0.0000 R=    0.0000 C=    0.0000
 XYZ=    3.5232   23.0692   17.3652 Q=   -0.8340 A=    0.0000 R=    0.0000 C=    0.0000
 XYZ=    4.2206   22.4642   17.1121 Q=    0.4170 A=    0.0000 R=    0.0000 C=    0.0000
 XYZ=    3.7932   23.9123   17.0014 Q=    0.4170 A=    0.0000 R=    0.0000 C=    0.0000
 XYZ=   10.0851   19.1502   25.2346 Q=   -0.8340 A=    0.0000 R=    0.0000 C=    0.0000
 XYZ=   10.5856   19.2289   24.4225 Q=    0.4170 A=    0.0000 R=    0.0000 C=    0.0000
 XYZ=    9.1759   19.2917   24.9709 Q=    0.4170 A=    0.0000 R=    0.0000 C=    0.0000
 XYZ=    9.9943   11.7995    4.5317 Q=   -0.8340 A=    0.0000 R=    0.0000 C=    0.0000
 XYZ=   10.7687   11.8099    5.0941 Q=    0.4170 A=    0.0000 R=    0.0000 C=    0.0000
 XYZ=   10.2743   11.3291    3.7464 Q=    0.4170 A=    0.0000 R=    0.0000 C=    0.0000
 XYZ=   17.3976   19.3954    7.8602 Q=   -0.8340 A=    0.0000 R=    0.0000 C=    0.0000
 XYZ=   16.8595   19.1236    7.1167 Q=    0.4170 A=    0.0000 R=    0.0000 C=    0.0000
 XYZ=   17.2657   18.7100    8.5152 Q=    0.4170 A=    0.0000 R=    0.0000 C=    0.0000
 XYZ=   16.5616   21.9259   10.4188 Q=   -0.8340 A=    0.0000 R=    0.0000 C=    0.0000
 XYZ=   16.1107   21.2413   10.9131 Q=    0.4170 A=    0.0000 R=    0.0000 C=    0.0000
 XYZ=   15.8665   22.5283   10.1541 Q=    0.4170 A=    0.0000 R=    0.0000 C=    0.0000
 XYZ=   24.3490   22.1581   21.1030 Q=   -0.8340 A=    0.0000 R=    0.0000 C=    0.0000
 XYZ=   24.6712   23.0017   20.7856 Q=    0.4170 A=    0.0000 R=    0.0000 C=    0.0000
 XYZ=   25.1390   21.6347   21.2376 Q=    0.4170 A=    0.0000 R=    0.0000 C=    0.0000
 XYZ=   11.1707   27.7534   25.1773 Q=   -0.8340 A=    0.0000 R=    0.0000 C=    0.0000
 XYZ=   11.4094   28.5754   25.6058 Q=    0.4170 A=    0.0000 R=    0.0000 C=    0.0000
 XYZ=   11.1687   27.1066   25.8830 Q=    0.4170 A=    0.0000 R=    0.0000 C=    0.0000
 XYZ=    6.0666   10.1467   24.4049 Q=   -0.8340 A=    0.0000 R=    0.0000 C=    0.0000
 XYZ=    5.3806   10.3283   23.7626 Q=    0.4170 A=    0.0000 R=    0.0000 C=    0.0000
 XYZ=    5.8677   10.7276   25.1392 Q=    0.4170 A=    0.0000 R=    0.0000 C=    0.0000
 XYZ=    8.3105    5.9709   10.1554 Q=   -0.8340 A=    0.0000 R=    0.0000 C=    0.0000
 XYZ=    7.4692    5.6660    9.8157 Q=    0.4170 A=    0.0000 R=    0.0000 C=    0.0000
 XYZ=    8.0910    6.7333   10.6909 Q=    0.4170 A=    0.0000 R=    0.0000 C=    0.0000
 XYZ=    7.4872   15.7604   19.4924 Q=   -0.8340 A=    0.0000 R=    0.0000 C=    0.0000
 XYZ=    7.1143   16.1000   20.3059 Q=    0.4170 A=    0.0000 R=    0.0000 C=    0.0000
 XYZ=    8.3831   15.5148   19.7232 Q=    0.4170 A=    0.0000 R=    0.0000 C=    0.0000
 XYZ=   10.1717   26.6352   14.0078 Q=   -0.8340 A=    0.0000 R=    0.0000 C=    0.0000
 XYZ=    9.3079   27.0385   14.0941 Q=    0.4170 A=    0.0000 R=    0.0000 C=    0.0000
 XYZ=   10.7852   27.3267   14.2560 Q=    0.4170 A=    0.0000 R=    0.0000 C=    0.0000
 XYZ=   16.6259    8.3755   23.2375 Q=   -0.8340 A=    0.0000 R=    0.0000 C=    0.0000
 XYZ=   16.1050    8.1464   24.0071 Q=    0.4170 A=    0.0000 R=    0.0000 C=    0.0000
 XYZ=   17.0233    7.5494   22.9621 Q=    0.4170 A=    0.0000 R=    0.0000 C=    0.0000
 XYZ=   18.3549   22.7311    8.2037 Q=   -0.8340 A=    0.0000 R=    0.0000 C=    0.0000
 XYZ=   18.0093   22.4371    9.0465 Q=    0.4170 A=    0.0000 R=    0.0000 C=    0.0000
 XYZ=   18.8834   23.5004    8.4162 Q=    0.4170 A=    0.0000 R=    0.0000 C=    0.0000
 XYZ=   10.6642    7.7166   14.6531 Q=   -0.8340 A=    0.0000 R=    0.0000 C=    0.0000
 XYZ=   10.0973    8.3445   14.2052 Q=    0.4170 A=    0.0000 R=    0.0000 C=    0.0000
 XYZ=   11.3195    8.2571   15.0942 Q=    0.4170 A=    0.0000 R=    0.0000 C=    0.0000
 XYZ=   26.2723   13.1396   23.4427 Q=   -0.8340 A=    0.0000 R=    0.0000 C=    0.0000
 XYZ=   26.1360   12.3547   23.9732 Q=    0.4170 A=    0.0000 R=    0.0000 C=    0.0000
 XYZ=   26.4289   12.8077   22.5587 Q=    0.4170 A=    0.0000 R=    0.0000 C=    0.0000
 XYZ=    4.4307   10.6429   13.0177 Q=   -0.8340 A=    0.0000 R=    0.0000 C=    0.0000
 XYZ=    3.5033   10.7143   12.7919 Q=    0.4170 A=    0.0000 R=    0.0000 C=    0.0000
 XYZ=    4.4417   10.1362   13.8298 Q=    0.4170 A=    0.0000 R=    0.0000 C=    0.0000
 XYZ=   28.6813   18.4959   11.1650 Q=   -0.8340 A=    0.0000 R=    0.0000 C=    0.0000
 XYZ=   28.3988   17.6390   11.4847 Q=    0.4170 A=    0.0000 R=    0.0000 C=    0.0000
 XYZ=   29.1604   18.8800   11.8992 Q=    0.4170 A=    0.0000 R=    0.0000 C=    0.0000
 XYZ=   16.0470    4.9250   21.3864 Q=   -0.8340 A=    0.0000 R=    0.0000 C=    0.0000
 XYZ=   15.5208    5.2479   22.1180 Q=    0.4170 A=    0.0000 R=    0.0000 C=    0.0000
 XYZ=   16.9518    5.0958   21.6478 Q=    0.4170 A=    0.0000 R=    0.0000 C=    0.0000
 XYZ=   11.4076   31.5020   18.7757 Q=   -0.8340 A=    0.0000 R=    0.0000 C=    0.0000
 XYZ=   11.9787   30.7504   18.6169 Q=    0.4170 A=    0.0000 R=    0.0000 C=    0.0000
 XYZ=   11.0913   31.7509   17.9072 Q=    0.4170 A=    0.0000 R=    0.0000 C=    0.0000
 XYZ=   15.0349   10.2173   27.1468 Q=   -0.8340 A=    0.0000 R=    0.0000 C=    0.0000
 XYZ=   15.2188   10.4375   26.2336 Q=    0.4170 A=    0.0000 R=    0.0000 C=    0.0000
 XYZ=   15.7772   10.5748   27.6340 Q=    0.4170 A=    0.0000 R=    0.0000 C=    0.0000
 XYZ=   22.7450   19.1557   13.8840 Q=   -0.8340 A=    0.0000 R=    0.0000 C=    0.0000
 XYZ=   22.6257   18.4497   13.2487 Q=    0.4170 A=    0.0000 R=    0.0000 C=    0.0000
 XYZ=   22.8164   19.9480   13.3516 Q=    0.4170 A=    0.0000 R=    0.0000 C=    0.0000
 XYZ=   18.6893   29.6441   19.4618 Q=   -0.8340 A=    0.0000 R=    0.0000 C=    0.0000
 XYZ=   18.6314   29.6662   18.5066 Q=    0.4170 A=    0.0000 R=    0.0000 C=    0.0000
 XYZ=   19.0834   30.4839   19.6977 Q=    0.4170 A=    0.0000 R=    0.0000 C=    0.0000
 XYZ=    4.6461   19.2766   18.1445 Q=   -0.8340 A=    0.0000 R=    0.0000 C=    0.0000
 XYZ=    5.1691   20.0713   18.0400 Q=    0.4170 A=    0.0000 R=    0.0000 C=    0.0000
 XYZ=    4.3700   19.2898   19.0609 Q=    0.4170 A=    0.0000 R=    0.0000 C=    0.0000
 XYZ=   19.6374   11.6746    5.6175 Q=   -0.8340 A=    0.0000 R=    0.0000 C=    0.0000
 XYZ=   19.1194   11.1394    6.2187 Q=    0.4170 A=    0.0000 R=    0.0000 C=    0.0000
 XYZ=   19.9962   11.0492    4.9878 Q=    0.4170 A=    0.0000 R=    0.0000 C=    0.0000
 XYZ=    6.3080   21.6012   17.4519 Q=   -0.8340 A=    0.0000 R=    0.0000 C=    0.0000
 XYZ=    6.8106   20.8778   17.8264 Q=    0.4170 A=    0.0000 R=    0.0000 C=    0.0000
 XYZ=    6.7356   21.7824   16.6148 Q=    0.4170 A=    0.0000 R=    0.0000 C=    0.0000
 XYZ=    8.8729   23.8240   20.1706 Q=   -0.8340 A=    0.0000 R=    0.0000 C=    0.0000
 XYZ=    7.9426   24.0348   20.0918 Q=    0.4170 A=    0.0000 R=    0.0000 C=    0.0000
 XYZ=    9.3228   24.5750   19.7836 Q=    0.4170 A=    0.0000 R=    0.0000 C=    0.0000
 XYZ=   13.6438    5.7840   25.6902 Q=   -0.8340 A=    0.0000 R=    0.0000 C=    0.0000
 XYZ=   13.9077    5.9291   26.5988 Q=    0.4170 A=    0.0000 R=    0.0000 C=    0.0000
 XYZ=   12.7745    6.1796   25.6266 Q=    0.4170 A=    0.0000 R=    0.0000 C=    0.0000
 XYZ=    5.5150   16.4606   26.3264 Q=   -0.8340 A=    0.0000 R=    0.0000 C=    0.0000
 XYZ=    6.0001   16.4042   27.1496 Q=    0.4170 A=    0.0000 R=    0.0000 C=    0.0000
 XYZ=    4.6811   16.8648   26.5664 Q=    0.4170 A=    0.0000 R=    0.0000 C=    0.0000
 XYZ=   25.5198   24.4011   20.4552 Q=   -0.8340 A=    0.0000 R=    0.0000 C=    0.0000
 XYZ=   26.3721   24.6648   20.8019 Q=    0.4170 A=    0.0000 R=    0.0000 C=    0.0000
 XYZ=   24.9843   25.1928   20.5068 Q=    0.4170 A=    0.0000 R=    0.0000 C=    0.0000
 XYZ=   18.9320    6.1008   16.9753 Q=   -0.8340 A=    0.0000 R=    0.0000 C=    0.0000
 XYZ=   18.6616    5.2040   16.7780 Q=    0.4170 A=    0.0000 R=    0.0000 C=    0.0000
 XYZ=   19.3511    6.0417   17.8339 Q=    0.4170 A=    0.0000 R=    0.0000 C=    0.0000
 XYZ=   10.4465    8.8245   18.0205 Q=   -0.8340 A=    0.0000 R=    0.0000 C=    0.0000
 XYZ=   11.0419    9.1000   18.7175 Q=    0.4170 A=    0.0000 R=    0.0000 C=    0.0000
 XYZ=   10.9626    8.9048   17.2183 Q=    0.4170 A=    0.0000 R=    0.0000 C=    0.0000
 XYZ=   20.8025   18.4445   26.4877 Q=   -0.8340 A=    0.0000 R=    0.0000 C=    0.0000
 XYZ=   21.6806   18.5021   26.1111 Q=    0.4170 A=    0.0000 R=    0.0000 C=    0.0000
 XYZ=   20.6102   17.5070   26.5060 Q=    0.4170 A=    0.0000 R=    0.0000 C=    0.0000
 XYZ=   17.4085    7.1514    7.8303 Q=   -0.8340 A=    0.0000 R=    0.0000 C=    0.0000
 XYZ=   17.4064    6.2814    7.4311 Q=    0.4170 A=    0.0000 R=    0.0000 C=    0.0000
 XYZ=   17.5476    7.7513    7.0975 Q=    0.4170 A=    0.0000 R=    0.0000 C=    0.0000
 XYZ=   20.5197    7.4338   15.1458 Q=   -0.8340 A=    0.0000 R=    0.0000 C=    0.0000
 XYZ=   20.0646    8.2685   15.0343 Q=    0.4170 A=    0.0000 R=    0.0000 C=    0.0000
 XYZ=   19.9618    6.9339   15.7417 Q=    0.4170 A=    0.0000 R=    0.0000 C=    0.0000
 XYZ=   23.4711   10.5433   10.2639 Q=   -0.8340 A=    0.0000 R=    0.0000 C=    0.0000
 XYZ=   23.0891    9.7390    9.9126 Q=    0.4170 A=    0.0000 R=    0.0000 C=    0.0000
 XYZ=   24.4146   10.3824   10.2600 Q=    0.4170 A=    0.0000 R=    0.0000 C=    0.0000
 XYZ=   15.0145   26.2484   24.3668 Q=   -0.8340 A=    0.0000 R=    0.0000 C=    0.0000
 XYZ=   14.3077   25.8459   23.8621 Q=    0.4170 A=    0.0000 R=    0.0000 C=    0.0000
 XYZ=   15.3611   25.5363   24.9044 Q=    0.4170 A=    0.0000 R=    0.0000 C=    0.0000
 XYZ=   20.1424   15.8622    1.6647 Q=   -0.8340 A=    0.0000 R=    0.0000 C=    0.0000
 XYZ=   20.4471   15.4862    0.8388 Q=    0.4170 A=    0.0000 R=    0.0000 C=    0.0000
 XYZ=   19.8325   15.1109    2.1705 Q=    0.4170 A=    0.0000 R=    0.0000 C=    0.0000
 XYZ=   14.1501   12.8913   22.8148 Q=   -0.8340 A=    0.0000 R=    0.0000 C=    0.0000
 XYZ=   13.9281   13.2442   21.9532 Q=    0.4170 A=    0.0000 R=    0.0000 C=    0.0000
 XYZ=   13.5078   12.1971   22.9626 Q=    0.4170 A=    0.0000 R=    0.0000 C=    0.0000
 XYZ=   22.6317    4.7230   12.4002 Q=   -0.8340 A=    0.0000 R=    0.0000 C=    0.0000
 XYZ=   21.9488    4.0524   12.4167 Q=    0.4170 A=    0.0000 R=    0.0000 C=    0.0000
 XYZ=   22.6463    5.0727   13.2911 Q=    0.4170 A=    0.0000 R=    0.0000 C=    0.0000
 XYZ=    7.7973   14.7182    9.9500 Q=   -0.8340 A=    0.0000 R=    0.0000 C=    0.0000
 XYZ=    7.2702   14.7233    9.1510 Q=    0.4170 A=    0.0000 R=    0.0000 C=    0.0000
 XYZ=    8.6797   14.9455    9.6569 Q=    0.4170 A=    0.0000 R=    0.0000 C=    0.0000
 XYZ=   29.2539    8.1953   14.2873 Q=   -0.8340 A=    0.0000 R=    0.0000 C=    0.0000
 XYZ=   29.0145    9.0837   14.0232 Q=    0.4170 A=    0.0000 R=    0.0000 C=    0.0000
 XYZ=   30.1973    8.1452   14.1333 Q=    0.4170 A=    0.0000 R=    0.0000 C=    0.0000
 XYZ=    8.8513    8.4217    8.0581 Q=   -0.8340 A=    0.0000 R=    0.0000 C=    0.0000
 XYZ=    8.5984    9.3424    7.9901 Q=    0.4170 A=    0.0000 R=    0.0000 C=    0.0000
 XYZ=    8.7308    8.2074    8.9832 Q=    0.4170 A=    0.0000 R=    0.0000 C=    0.0000
 XYZ=   18.0146   21.6909   24.8050 Q=   -0.8340 A=    0.0000 R=    0.0000 C=    0.0000
 XYZ=   18.8945   22.0621   24.8701 Q=    0.4170 A=    0.0000 R=    0.0000 C=    0.0000
 XYZ=   18.1585   20.7673   24.5986 Q=    0.4170 A=    0.0000 R=    0.0000 C=    0.0000
 XYZ=   14.1981   22.1875   27.3636 Q=   -0.8340 A=    0.0000 R=    0.0000 C=    0.0000
 XYZ=   14.4985   23.0781   27.1826 Q=    0.4170 A=    0.0000 R=    0.0000 C=    0.0000
 XYZ=   14.9784   21.6441   27.2540 Q=    0.4170 A=    0.0000 R=    0.0000 C=    0.0000
 XYZ=   16.2946    9.1334   11.2731 Q=   -0.8340 A=    0.0000 R=    0.0000 C=    0.0000
 XYZ=   16.8225    9.7386   10.7524 Q=    0.4170 A=    0.0000 R=    0.0000 C=    0.0000
 XYZ=   15.7196    8.7081   10.6369 Q=    0.4170 A=    0.0000 R=    0.0000 C=    0.0000
 XYZ=   13.8451   25.2240   13.0489 Q=   -0.8340 A=    0.0000 R=    0.0000 C=    0.0000
 XYZ=   13.1070   24.8414   12.5746 Q=    0.4170 A=    0.0000 R=    0.0000 C=    0.0000
 XYZ=   14.1676   24.5141   13.6041 Q=    0.4170 A=    0.0000 R=    0.0000 C=    0.0000
 XYZ=    8.0379   21.7418   23.6223 Q=   -0.8340 A=    0.0000 R=    0.0000 C=    0.0000
 XYZ=    7.6780   20.8900   23.8696 Q=    0.4170 A=    0.0000 R=    0.0000 C=    0.0000
 XYZ=    8.3751   21.6117   22.7360 Q=    0.4170 A=    0.0000 R=    0.0000 C=    0.0000
 XYZ=   28.3153   19.8403   13.9885 Q=   -0.8340 A=    0.0000 R=    0.0000 C=    0.0000
 XYZ=   29.2274   20.1258   13.9366 Q=    0.4170 A=    0.0000 R=    0.0000 C=    0.0000
 XYZ=   27.8722   20.5388   14.4701 Q=    0.4170 A=    0.0000 R=    0.0000 C=    0.0000
 XYZ=   23.1063   17.0607   12.0833 Q=   -0.8340 A=    0.0000 R=    0.0000 C=    0.0000
 XYZ=   23.7871   17.2563   11.4395 Q=    0.4170 A=    0.0000 R=    0.0000 C=    0.0000
 XYZ=   23.1198   16.1070   12.1646 Q=    0.4170 A=    0.0000 R=    0.0000 C=    0.0000
 XYZ=   24.0809   15.2563   20.9533 Q=   -0.8340 A=    0.0000 R=    0.0000 C=    0.0000
 XYZ=   24.3496   15.9268   21.5814 Q=    0.4170 A=    0.0000 R=    0.0000 C=    0.0000
 XYZ=   24.7662   14.5901   21.0054 Q=    0.4170 A=    0.0000 R=    0.0000 C=    0.0000
 XYZ=   22.8433   12.6651   19.2411 Q=   -0.8340 A=    0.0000 R=    0.0000 C=    0.0000
 XYZ=   23.2986   11.8507   19.4550 Q=    0.4170 A=    0.0000 R=    0.0000 C=    0.0000
 XYZ=   22.2314   12.4226   18.5461 Q=    0.4170 A=    0.0000 R=    0.0000 C=    0.0000
 XYZ=   12.6097   13.1478   12.3405 Q=   -0.8340 A=    0.0000 R=    0.0000 C=    0.0000
 XYZ=   12.1057   13.2254   11.5304 Q=    0.4170 A=    0.0000 R=    0.0000 C=    0.0000
 XYZ=   12.6224   12.2089   12.5263 Q=    0.4170 A=    0.0000 R=    0.0000 C=    0.0000
 XYZ=   11.8096   26.2790    6.8843 Q=   -0.8340 A=    0.0000 R=    0.0000 C=    0.0000
 XYZ=   12.5497   26.5815    6.3580 Q=    0.4170 A=    0.0000 R=    0.0000 C=    0.0000
 XYZ=   11.2526   27.0513    6.9815 Q=    0.4170 A=    0.0000 R=    0.0000 C=    0.0000
 XYZ=   24.9418   14.6914   14.4966 Q=   -0.8340 A=    0.0000 R=    0.0000 C=    0.0000
 XYZ=   24.5832   13.8635   14.1767 Q=    0.4170 A=    0.0000 R=    0.0000 C=    0.0000
 XYZ=   24.2285   15.3202   14.3869 Q=    0.4170 A=    0.0000 R=    0.0000 C=    0.0000
 XYZ=   23.3827   19.5135    3.2712 Q=   -0.8340 A=    0.0000 R=    0.0000 C=    0.0000
 XYZ=   22.7419   19.8453    3.9000 Q=    0.4170 A=    0.0000 R=    0.0000 C=    0.0000
 XYZ=   24.1800   20.0096    3.4567 Q=    0.4170 A=    0.0000 R=    0.0000 C=    0.0000
 XYZ=   20.4371   28.4122   15.1813 Q=   -0.8340 A=    0.0000 R=    0.0000 C=    0.0000
 XYZ=   20.2921   27.7860   15.8905 Q=    0.4170 A=    0.0000 R=    0.0000 C=    0.0000
 XYZ=   20.3256   27.8988   14.3812 Q=    0.4170 A=    0.0000 R=    0.0000 C=    0.0000
 XYZ=   16.1577   20.1744   27.0534 Q=   -0.8340 A=    0.0000 R=    0.0000 C=    0.0000
 XYZ=   16.1955   19.3428   27.5259 Q=    0.4170 A=    0.0000 R=    0.0000 C=    0.0000
 XYZ=   17.0523   20.3153   26.7434 Q=    0.4170 A=    0.0000 R=    0.0000 C=    0.0000
 XYZ=   20.4845   23.0302   25.1569 Q=   -0.8340 A=    0.0000 R=    0.0000 C=    0.0000
 XYZ=   20.6750   23.7066   25.8069 Q=    0.4170 A=    0.0000 R=    0.0000 C=    0.0000
 XYZ=   21.1871   23.1125   24.5120 Q=    0.4170 A=    0.0000 R=    0.0000 C=    0.0000
 XYZ=   15.2053   20.6735    2.5205 Q=   -0.8340 A=    0.0000 R=    0.0000 C=    0.0000
 XYZ=   15.3071   21.0708    1.6556 Q=    0.4170 A=    0.0000 R=    0.0000 C=    0.0000
 XYZ=   15.7757   21.1896    3.0903 Q=    0.4170 A=    0.0000 R=    0.0000 C=    0.0000
 XYZ=   25.8368   25.6551   24.0692 Q=   -0.8340 A=    0.0000 R=    0.0000 C=    0.0000
 XYZ=   25.3979   26.4656   23.8112 Q=    0.4170 A=    0.0000 R=    0.0000 C=    0.0000
 XYZ=   26.3125   25.3798   23.2856 Q=    0.4170 A=    0.0000 R=    0.0000 C=    0.0000
 XYZ=    6.5941    6.6831   20.4472 Q=   -0.8340 A=    0.0000 R=    0.0000 C=    0.0000
 XYZ=    7.3822    6.2566   20.1108 Q=    0.4170 A=    0.0000 R=    0.0000 C=    0.0000
 XYZ=    6.9211    7.3488   21.0523 Q=    0.4170 A=    0.0000 R=    0.0000 C=    0.0000
 XYZ=   13.7362   16.4755    5.5857 Q=   -0.8340 A=    0.0000 R=    0.0000 C=    0.0000
 XYZ=   14.3315   15.8205    5.2213 Q=    0.4170 A=    0.0000 R=    0.0000 C=    0.0000
 XYZ=   12.9646   16.4393    5.0205 Q=    0.4170 A=    0.0000 R=    0.0000 C=    0.0000
 XYZ=   19.0965   21.8203   29.9972 Q=   -0.8340 A=    0.0000 R=    0.0000 C=    0.0000
 XYZ=   19.2330   20.9160   29.7146 Q=    0.4170 A=    0.0000 R=    0.0000 C=    0.0000
 XYZ=   19.6748   21.9255   30.7527 Q=    0.4170 A=    0.0000 R=    0.0000 C=    0.0000
 XYZ=   21.1807   12.1573   17.1833 Q=   -0.8340 A=    0.0000 R=    0.0000 C=    0.0000
 XYZ=   21.1185   13.0767   16.9242 Q=    0.4170 A=    0.0000 R=    0.0000 C=    0.0000
 XYZ=   21.9323   11.8208   16.6954 Q=    0.4170 A=    0.0000 R=    0.0000 C=    0.0000
 XYZ=   11.5988   16.8548   12.6761 Q=   -0.8340 A=    0.0000 R=    0.0000 C=    0.0000
 XYZ=   11.9852   17.2825   11.9119 Q=    0.4170 A=    0.0000 R=    0.0000 C=    0.0000
 XYZ=   10.6840   16.7110   12.4337 Q=    0.4170 A=    0.0000 R=    0.0000 C=    0.0000
 XYZ=   14.5556    2.7259   20.1051 Q=   -0.8340 A=    0.0000 R=    0.0000 C=    0.0000
 XYZ=   14.9533    3.0287   19.2887 Q=    0.4170 A=    0.0000 R=    0.0000 C=    0.0000
 XYZ=   14.8441    3.3596   20.7620 Q=    0.4170 A=    0.0000 R=    0.0000 C=    0.0000
 XYZ=    2.7980   19.7660   10.3718 Q=   -0.8340 A=    0.0000 R=    0.0000 C=    0.0000
 XYZ=    2.7168   19.8654    9.4233 Q=    0.4170 A=    0.0000 R=    0.0000 C=    0.0000
 XYZ=    3.4615   20.4080   10.6245 Q=    0.4170 A=    0.0000 R=    0.0000 C=    0.0000
 XYZ=   10.8936   13.1197   23.4661 Q=   -0.8340 A=    0.0000 R=    0.0000 C=    0.0000
 XYZ=   11.5824   13.7783   23.5560 Q=    0.4170 A=    0.0000 R=    0.0000 C=    0.0000
 XYZ=   10.2900   13.3040   24.1857 Q=    0.4170 A=    0.0000 R=    0.0000 C=    0.0000
 XYZ=   22.6158   14.3496   11.8390 Q=   -0.8340 A=    0.0000 R=    0.0000 C=    0.0000
 XYZ=   22.4385   14.0105   10.9616 Q=    0.4170 A=    0.0000 R=    0.0000 C=    0.0000
 XYZ=   21.7547   14.4053   12.2533 Q=    0.4170 A=    0.0000 R=    0.0000 C=    0.0000
 XYZ=   14.3985   11.3116   14.8918 Q=   -0.8340 A=    0.0000 R=    0.0000 C=    0.0000
 XYZ=   14.9206   11.8746   14.3201 Q=    0.4170 A=    0.0000 R=    0.0000 C=    0.0000
 XYZ=   13.8573   11.9184   15.3968 Q=    0.4170 A=    0.0000 R=    0.0000 C=    0.0000
 XYZ=   15.6084    7.2227   19.7813 Q=   -0.8340 A=    0.0000 R=    0.0000 C=    0.0000
 XYZ=   15.4795    6.7815   18.9417 Q=    0.4170 A=    0.0000 R=    0.0000 C=    0.0000
 XYZ=   15.7614    6.5126   20.4046 Q=    0.4170 A=    0.0000 R=    0.0000 C=    0.0000
 XYZ=   25.9683   22.3287   12.3730 Q=   -0.8340 A=    0.0000 R=    0.0000 C=    0.0000
 XYZ=   26.4619   22.8053   11.7056 Q=    0.4170 A=    0.0000 R=    0.0000 C=    0.0000
 XYZ=   26.5747   22.2498   13.1093 Q=    0.4170 A=    0.0000 R=    0.0000 C=    0.0000
 XYZ=   22.9690   29.2536   15.6776 Q=   -0.8340 A=    0.0000 R=    0.0000 C=    0.0000
 XYZ=   22.0536   29.0328   15.5056 Q=    0.4170 A=    0.0000 R=    0.0000 C=    0.0000
 XYZ=   23.3636   29.3344   14.8093 Q=    0.4170 A=    0.0000 R=    0.0000 C=    0.0000
 XYZ=   23.3871   21.3274   12.4687 Q=   -0.8340 A=    0.0000 R=    0.0000 C=    0.0000
 XYZ=   22.8466   22.0912   12.6709 Q=    0.4170 A=    0.0000 R=    0.0000 C=    0.0000
 XYZ=   24.2672   21.5743   12.7526 Q=    0.4170 A=    0.0000 R=    0.0000 C=    0.0000
 XYZ=   15.1482    7.9999    9.2020 Q=   -0.8340 A=    0.0000 R=    0.0000 C=    0.0000
 XYZ=   15.6580    7.5108    8.5561 Q=    0.4170 A=    0.0000 R=    0.0000 C=    0.0000
 XYZ=   14.2477    7.7026    9.0720 Q=    0.4170 A=    0.0000 R=    0.0000 C=    0.0000
 XYZ=   23.8938   29.1397   13.1037 Q=   -0.8340 A=    0.0000 R=    0.0000 C=    0.0000
 XYZ=   23.9158   28.3303   12.5931 Q=    0.4170 A=    0.0000 R=    0.0000 C=    0.0000
 XYZ=   24.8146   29.3560   13.2506 Q=    0.4170 A=    0.0000 R=    0.0000 C=    0.0000
 XYZ=   17.8907   22.8706   17.5128 Q=   -0.8340 A=    0.0000 R=    0.0000 C=    0.0000
 XYZ=   17.4312   23.6960   17.3587 Q=    0.4170 A=    0.0000 R=    0.0000 C=    0.0000
 XYZ=   18.7033   23.1261   17.9494 Q=    0.4170 A=    0.0000 R=    0.0000 C=    0.0000
 XYZ=    7.8759   17.7838   10.7411 Q=   -0.8340 A=    0.0000 R=    0.0000 C=    0.0000
 XYZ=    8.4223   17.9505    9.9731 Q=    0.4170 A=    0.0000 R=    0.0000 C=    0.0000
 XYZ=    6.9781   17.8541   10.4168 Q=    0.4170 A=    0.0000 R=    0.0000 C=    0.0000
 XYZ=   11.1397    6.9068   25.4137 Q=   -0.8340 A=    0.0000 R=    0.0000 C=    0.0000
 XYZ=   10.6089    7.2697   24.7047 Q=    0.4170 A=    0.0000 R=    0.0000 C=    0.0000
 XYZ=   10.6041    7.0233   26.1984 Q=    0.4170 A=    0.0000 R=    0.0000 C=    0.0000
 XYZ=   11.4743    9.0655   10.4459 Q=   -0.8340 A=    0.0000 R=    0.0000 C=    0.0000
 XYZ=   11.6112    8.1230   10.3498 Q=    0.4170 A=    0.0000 R=    0.0000 C=    0.0000
 XYZ=   10.5715    9.1468   10.7532 Q=    0.4170 A=    0.0000 R=    0.0000 C=    0.0000
 XYZ=    8.2119    8.6210   21.8271 Q=   -0.8340 A=    0.0000 R=    0.0000 C=    0.0000
 XYZ=    9.1602    8.6401   21.6982 Q=    0.4170 A=    0.0000 R=    0.0000 C=    0.0000
 XYZ=    8.0910    8.8370   22.7518 Q=    0.4170 A=    0.0000 R=    0.0000 C=    0.0000
 XYZ=    6.5332   11.5989    9.3801 Q=   -0.8340 A=    0.0000 R=    0.0000 C=    0.0000
 XYZ=    6.9234   11.2443    8.5812 Q=    0.4170 A=    0.0000 R=    0.0000 C=    0.0000
 XYZ=    7.2539   11.6214   10.0097 Q=    0.4170 A=    0.0000 R=    0.0000 C=    0.0000
 XYZ=    9.5450   24.2395   14.8871 Q=   -0.8340 A=    0.0000 R=    0.0000 C=    0.0000
 XYZ=    9.9486   24.9834   14.4400 Q=    0.4170 A=    0.0000 R=    0.0000 C=    0.0000
 XYZ=   10.2617   23.8361   15.3768 Q=    0.4170 A=    0.0000 R=    0.0000 C=    0.0000
 XYZ=   26.2244   19.9423   21.2450 Q=   -0.8340 A=    0.0000 R=    0.0000 C=    0.0000
 XYZ=   27.0154   20.1545   20.7496 Q=    0.4170 A=    0.0000 R=    0.0000 C=    0.0000
 XYZ=   26.5267   19.3598   21.9418 Q=    0.4170 A=    0.0000 R=    0.0000 C=    0.0000
 XYZ=    8.4398   13.1822   25.8787 Q=   -0.8340 A=    0.0000 R=    0.0000 C=    0.0000
 XYZ=    9.0255   12.4359   25.7516 Q=    0.4170 A=    0.0000 R=    0.0000 C=    0.0000
 XYZ=    7.9253   13.2234   25.0726 Q=    0.4170 A=    0.0000 R=    0.0000 C=    0.0000
 XYZ=   10.4930    8.9975    5.7429 Q=   -0.8340 A=    0.0000 R=    0.0000 C=    0.0000
 XYZ=    9.8152    8.8191    6.3948 Q=    0.4170 A=    0.0000 R=    0.0000 C=    0.0000
 XYZ=   10.6096    9.9472    5.7716 Q=    0.4170 A=    0.0000 R=    0.0000 C=    0.0000
 XYZ=    9.6857   14.6967   27.9479 Q=   -0.8340 A=    0.0000 R=    0.0000 C=    0.0000
 XYZ=    9.9594   14.0821   28.6288 Q=    0.4170 A=    0.0000 R=    0.0000 C=    0.0000
 XYZ=    9.0693   14.1998   27.4098 Q=    0.4170 A=    0.0000 R=    0.0000 C=    0.0000
 XYZ=   20.3722   19.0071    8.0918 Q=   -0.8340 A=    0.0000 R=    0.0000 C=    0.0000
 XYZ=   19.4188   19.0698    8.0328 Q=    0.4170 A=    0.0000 R=    0.0000 C=    0.0000
 XYZ=   20.6281   19.7494    8.6391 Q=    0.4170 A=    0.0000 R=    0.0000 C=    0.0000
 XYZ=   25.7193   12.5000    8.0355 Q=   -0.8340 A=    0.0000 R=    0.0000 C=    0.0000
 XYZ=   24.7791   12.4962    7.8561 Q=    0.4170 A=    0.0000 R=    0.0000 C=    0.0000
 XYZ=   25.8569   13.2757    8.5791 Q=    0.4170 A=    0.0000 R=    0.0000 C=    0.0000
 XYZ=   10.3766    5.6255   22.2780 Q=   -0.8340 A=    0.0000 R=    0.0000 C=    0.0000
 XYZ=    9.7279    5.5313   22.9754 Q=    0.4170 A=    0.0000 R=    0.0000 C=    0.0000
 XYZ=    9.8684    5.8919   21.5118 Q=    0.4170 A=    0.0000 R=    0.0000 C=    0.0000
 XYZ=   16.6881   16.9225   24.9517 Q=   -0.8340 A=    0.0000 R=    0.0000 C=    0.0000
 XYZ=   15.7867   17.0923   25.2254 Q=    0.4170 A=    0.0000 R=    0.0000 C=    0.0000
 XYZ=   16.6026   16.3854   24.1641 Q=    0.4170 A=    0.0000 R=    0.0000 C=    0.0000
 XYZ=   24.2100   15.5817   18.2091 Q=   -0.8340 A=    0.0000 R=    0.0000 C=    0.0000
 XYZ=   24.0498   15.4594   19.1449 Q=    0.4170 A=    0.0000 R=    0.0000 C=    0.0000
 XYZ=   23.4297   15.2262   17.7836 Q=    0.4170 A=    0.0000 R=    0.0000 C=    0.0000
 XYZ=   15.3807    9.4213   16.5764 Q=   -0.8340 A=    0.0000 R=    0.0000 C=    0.0000
 XYZ=   16.0749    9.9665   16.9467 Q=    0.4170 A=    0.0000 R=    0.0000 C=    0.0000
 XYZ=   15.0560    9.9219   15.8279 Q=    0.4170 A=    0.0000 R=    0.0000 C=    0.0000
 XYZ=   23.5900   26.7411   20.0673 Q=   -0.8340 A=    0.0000 R=    0.0000 C=    0.0000
 XYZ=   23.5217   26.9565   19.1371 Q=    0.4170 A=    0.0000 R=    0.0000 C=    0.0000
 XYZ=   22.7233   26.9367   20.4232 Q=    0.4170 A=    0.0000 R=    0.0000 C=    0.0000
 XYZ=   14.4758   23.9084   18.9067 Q=   -0.8340 A=    0.0000 R=    0.0000 C=    0.0000
 XYZ=   14.8613   23.1231   18.5181 Q=    0.4170 A=    0.0000 R=    0.0000 C=    0.0000
 XYZ=   15.1950   24.3146   19.3904 Q=    0.4170 A=    0.0000 R=    0.0000 C=    0.0000
 XYZ=   11.8144   17.8938   10.2701 Q=   -0.8340 A=    0.0000 R=    0.0000 C=    0.0000
 XYZ=   11.1602   18.1751    9.6304 Q=    0.4170 A=    0.0000 R=    0.0000 C=    0.0000
 XYZ=   12.6218   17.8037    9.7640 Q=    0.4170 A=    0.0000 R=    0.0000 C=    0.0000
 XYZ=   26.5177   21.8141   26.7047 Q=   -0.8340 A=    0.0000 R=    0.0000 C=    0.0000
 XYZ=   27.4066   21.9418   27.0358 Q=    0.4170 A=    0.0000 R=    0.0000 C=    0.0000
 XYZ=   25.9521   22.1534   27.3984 Q=    0.4170 A=    0.0000 R=    0.0000 C=    0.0000
 XYZ=   10.7139   27.5135   22.4227 Q=   -0.8340 A=    0.0000 R=    0.0000 C=    0.0000
 XYZ=   11.3671   26.9623   21.9918 Q=    0.4170 A=    0.0000 R=    0.0000 C=    0.0000
 XYZ=   10.7302   27.2340   23.3381 Q=    0.4170 A=    0.0000 R=    0.0000 C=    0.0000
 XYZ=   19.8000   13.9399    7.5469 Q=   -0.8340 A=    0.0000 R=    0.0000 C=    0.0000
 XYZ=   19.6350   14.7087    7.0009 Q=    0.4170 A=    0.0000 R=    0.0000 C=    0.0000
 XYZ=   20.0323   13.2498    6.9256 Q=    0.4170 A=    0.0000 R=    0.0000 C=    0.0000
 XYZ=    7.4713   22.7424   11.6454 Q=   -0.8340 A=    0.0000 R=    0.0000 C=    0.0000
 XYZ=    7.3673   22.5834   10.7073 Q=    0.4170 A=    0.0000 R=    0.0000 C=    0.0000
 XYZ=    8.3954   22.9694   11.7494 Q=    0.4170 A=    0.0000 R=    0.0000 C=    0.0000
 XYZ=   13.0236   16.3757   28.8482 Q=   -0.8340 A=    0.0000 R=    0.0000 C=    0.0000
 XYZ=   12.4377   16.6930   28.1609 Q=    0.4170 A=    0.0000 R=    0.0000 C=    0.0000
 XYZ=   12.7998   16.9016   29.6160 Q=    0.4170 A=    0.0000 R=    0.0000 C=    0.0000
 XYZ=   18.3228    6.1217   22.8207 Q=   -0.8340 A=    0.0000 R=    0.0000 C=    0.0000
 XYZ=   18.7762    6.5005   23.5738 Q=    0.4170 A=    0.0000 R=    0.0000 C=    0.0000
 XYZ=   19.0249    5.8498   22.2297 Q=    0.4170 A=    0.0000 R=    0.0000 C=    0.0000
 XYZ=   28.1596   12.1641   16.5451 Q=   -0.8340 A=    0.0000 R=    0.0000 C=    0.0000
 XYZ=   28.3728   12.4574   15.6592 Q=    0.4170 A=    0.0000 R=    0.0000 C=    0.0000
 XYZ=   27.3953   12.6844   16.7927 Q=    0.4170 A=    0.0000 R=    0.0000 C=    0.0000
 XYZ=   13.1911   27.3791   11.4319 Q=   -0.8340 A=    0.0000 R=    0.0000 C=    0.0000
 XYZ=   12.5108   26.8048   11.0803 Q=    0.4170 A=    0.0000 R=    0.0000 C=    0.0000
 XYZ=   13.7780   26.7922   11.9086 Q=    0.4170 A=    0.0000 R=    0.0000 C=    0.0000
 XYZ=   17.1366   11.4969   19.5611 Q=   -0.8340 A=    0.0000 R=    0.0000 C=    0.0000
 XYZ=   17.0404   12.1778   20.2270 Q=    0.4170 A=    0.0000 R=    0.0000 C=    0.0000
 XYZ=   17.0216   10.6757   20.0392 Q=    0.4170 A=    0.0000 R=    0.0000 C=    0.0000
 XYZ=    4.0235   14.4619   16.6961 Q=   -0.8340 A=    0.0000 R=    0.0000 C=    0.0000
 XYZ=    4.4786   15.0209   16.0664 Q=    0.4170 A=    0.0000 R=    0.0000 C=    0.0000
 XYZ=    4.2546   14.8256   17.5509 Q=    0.4170 A=    0.0000 R=    0.0000 C=    0.0000
 XYZ=    8.2862    5.3375   15.4837 Q=   -0.8340 A=    0.0000 R=    0.0000 C=    0.0000
 XYZ=    8.5007    4.4823   15.1110 Q=    0.4170 A=    0.0000 R=    0.0000 C=    0.0000
 XYZ=    8.6087    5.9677   14.8395 Q=    0.4170 A=    0.0000 R=    0.0000 C=    0.0000
 XYZ=    6.2621   24.2818   18.9874 Q=   -0.8340 A=    0.0000 R=    0.0000 C=    0.0000
 XYZ=    6.0686   23.5910   18.3537 Q=    0.4170 A=    0.0000 R=    0.0000 C=    0.0000
 XYZ=    5.9138   23.9519   19.8158 Q=    0.4170 A=    0.0000 R=    0.0000 C=    0.0000
 XYZ=   11.4945   19.8222   22.9204 Q=   -0.8340 A=    0.0000 R=    0.0000 C=    0.0000
 XYZ=   12.0606   19.5471   22.1992 Q=    0.4170 A=    0.0000 R=    0.0000 C=    0.0000
 XYZ=   10.8137   20.3500   22.5032 Q=    0.4170 A=    0.0000 R=    0.0000 C=    0.0000
 XYZ=   12.4440   18.1281   20.9649 Q=   -0.8340 A=    0.0000 R=    0.0000 C=    0.0000
 XYZ=   12.9267   18.7662   20.4396 Q=    0.4170 A=    0.0000 R=    0.0000 C=    0.0000
 XYZ=   11.5516   18.1594   20.6200 Q=    0.4170 A=    0.0000 R=    0.0000 C=    0.0000
 XYZ=    5.7266   12.0979   17.6192 Q=   -0.8340 A=    0.0000 R=    0.0000 C=    0.0000
 XYZ=    5.3480   11.3244   17.2014 Q=    0.4170 A=    0.0000 R=    0.0000 C=    0.0000
 XYZ=    5.0423   12.7642   17.5555 Q=    0.4170 A=    0.0000 R=    0.0000 C=    0.0000
 XYZ=   11.4740   22.4726   16.5405 Q=   -0.8340 A=    0.0000 R=    0.0000 C=    0.0000
 XYZ=   11.0813   21.6933   16.1472 Q=    0.4170 A=    0.0000 R=    0.0000 C=    0.0000
 XYZ=   11.3987   22.3292   17.4839 Q=    0.4170 A=    0.0000 R=    0.0000 C=    0.0000
 XYZ=   20.4620   15.5463   29.6318 Q=   -0.8340 A=    0.0000 R=    0.0000 C=    0.0000
 XYZ=   20.0480   16.4014   29.7490 Q=    0.4170 A=    0.0000 R=    0.0000 C=    0.0000
 XYZ=   20.9103   15.6104   28.7885 Q=    0.4170 A=    0.0000 R=    0.0000 C=    0.0000
 XYZ=   10.8069   10.8311   28.3768 Q=   -0.8340 A=    0.0000 R=    0.0000 C=    0.0000
 XYZ=   11.1053   11.2361   27.5625 Q=    0.4170 A=    0.0000 R=    0.0000 C=    0.0000
 XYZ=   11.4171   10.1084   28.5232 Q=    0.4170 A=    0.0000 R=    0.0000 C=    0.0000
 XYZ=   21.8085   20.4111    5.1894 Q=   -0.8340 A=    0.0000 R=    0.0000 C=    0.0000
 XYZ=   22.1723   21.0881    5.7601 Q=    0.4170 A=    0.0000 R=    0.0000 C=    0.0000
 XYZ=   20.8639   20.5648    5.2066 Q=    0.4170 A=    0.0000 R=    0.0000 C=    0.0000
 XYZ=   26.3447   14.0792    4.9812 Q=   -0.8340 A=    0.0000 R=    0.0000 C=    0.0000
 XYZ=   25.7585   14.2677    4.2483 Q=    0.4170 A=    0.0000 R=    0.0000 C=    0.0000
 XYZ=   25.7996   14.1925    5.7598 Q=    0.4170 A=    0.0000 R=    0.0000 C=    0.0000
 XYZ=    3.4203   15.4608   21.6353 Q=   -0.8340 A=    0.0000 R=    0.0000 C=    0.0000
 XYZ=    2.6392   15.1657   21.1673 Q=    0.4170 A=    0.0000 R=    0.0000 C=    0.0000
 XYZ=    3.3451   15.0630   22.5026 Q=    0.4170 A=    0.0000 R=    0.0000 C=    0.0000
 XYZ=    8.8768   19.1120   16.3126 Q=   -0.8340 A=    0.0000 R=    0.0000 C=    0.0000
 XYZ=    8.3199   19.2868   15.5539 Q=    0.4170 A=    0.0000 R=    0.0000 C=    0.0000
 XYZ=    8.3962   18.4555   16.8169 Q=    0.4170 A=    0.0000 R=    0.0000 C=    0.0000
 XYZ=   15.2315   28.9577   23.1405 Q=   -0.8340 A=    0.0000 R=    0.0000 C=    0.0000
 XYZ=   15.1906   28.0974   23.5582 Q=    0.4170 A=    0.0000 R=    0.0000 C=    0.0000
 XYZ=   15.2460   28.7685   22.2023 Q=    0.4170 A=    0.0000 R=    0.0000 C=    0.0000
 XYZ=   14.1933   20.7234   29.8210 Q=   -0.8340 A=    0.0000 R=    0.0000 C=    0.0000
 XYZ=   14.2879   20.9397   28.8934 Q=    0.4170 A=    0.0000 R=    0.0000 C=    0.0000
 XYZ=   13.5141   21.3186   30.1381 Q=    0.4170 A=    0.0000 R=    0.0000 C=    0.0000
 XYZ=   12.0142   22.7996   28.8484 Q=   -0.8340 A=    0.0000 R=    0.0000 C=    0.0000
 XYZ=   12.6821   22.7715   28.1632 Q=    0.4170 A=    0.0000 R=    0.0000 C=    0.0000
 XYZ=   11.7383   21.8890   28.9521 Q=    0.4170 A=    0.0000 R=    0.0000 C=    0.0000
 XYZ=   20.9942   26.8508   18.3247 Q=   -0.8340 A=    0.0000 R=    0.0000 C=    0.0000
 XYZ=   20.0680   26.7347   18.5365 Q=    0.4170 A=    0.0000 R=    0.0000 C=    0.0000
 XYZ=   21.1693   27.7732   18.5113 Q=    0.4170 A=    0.0000 R=    0.0000 C=    0.0000
 XYZ=   20.5305   21.1942    9.6531 Q=   -0.8340 A=    0.0000 R=    0.0000 C=    0.0000
 XYZ=   20.8927   22.0610    9.8368 Q=    0.4170 A=    0.0000 R=    0.0000 C=    0.0000
 XYZ=   20.1316   20.9209   10.4792 Q=    0.4170 A=    0.0000 R=    0.0000 C=    0.0000
 XYZ=    5.1550   23.6468   21.3325 Q=   -0.8340 A=    0.0000 R=    0.0000 C=    0.0000
 XYZ=    4.2301   23.8630   21.4512 Q=    0.4170 A=    0.0000 R=    0.0000 C=    0.0000
 XYZ=    5.5952   24.0600   22.0753 Q=    0.4170 A=    0.0000 R=    0.0000 C=    0.0000
 XYZ=    8.3148   25.5770   26.5677 Q=   -0.8340 A=    0.0000 R=    0.0000 C=    0.0000
 XYZ=    7.5486   25.2195   26.1190 Q=    0.4170 A=    0.0000 R=    0.0000 C=    0.0000
 XYZ=    8.9998   25.5904   25.8992 Q=    0.4170 A=    0.0000 R=    0.0000 C=    0.0000
 XYZ=   24.5587    7.1031   15.3544 Q=   -0.8340 A=    0.0000 R=    0.0000 C=    0.0000
 XYZ=   25.3480    7.0129   15.8884 Q=    0.4170 A=    0.0000 R=    0.0000 C=    0.0000
 XYZ=   24.8149    7.6929   14.6453 Q=    0.4170 A=    0.0000 R=    0.0000 C=    0.0000
 XYZ=   29.3911   17.9892   18.0382 Q=   -0.8340 A=    0.0000 R=    0.0000 C=    0.0000
 XYZ=   29.1090   18.1976   18.9288 Q=    0.4170 A=    0.0000 R=    0.0000 C=    0.0000
 XYZ=   29.2497   17.0461   17.9561 Q=    0.4170 A=    0.0000 R=    0.0000 C=    0.0000
 XYZ=    7.7402   20.4871    8.1600 Q=   -0.8340 A=    0.0000 R=    0.0000 C=    0.0000
 XYZ=    8.6393   20.7969    8.0510 Q=    0.4170 A=    0.0000 R=    0.0000 C=    0.0000
 XYZ=    7.2235   21.2848    8.2732 Q=    0.4170 A=    0.0000 R=    0.0000 C=    0.0000
 XYZ=   15.4099    3.2481    9.3389 Q=   -0.8340 A=    0.0000 R=    0.0000 C=    0.0000
 XYZ=   14.5930    3.7459    9.3742 Q=    0.4170 A=    0.0000 R=    0.0000 C=    0.0000
 XYZ=   15.8769    3.4964   10.1366 Q=    0.4170 A=    0.0000 R=    0.0000 C=    0.0000
 XYZ=   14.0212   23.2654   15.3642 Q=   -0.8340 A=    0.0000 R=    0.0000 C=    0.0000
 XYZ=   13.2365   23.0061   15.8471 Q=    0.4170 A=    0.0000 R=    0.0000 C=    0.0000
 XYZ=   14.5939   22.4997   15.4080 Q=    0.4170 A=    0.0000 R=    0.0000 C=    0.0000
 XYZ=   20.1946   18.3486   31.5308 Q=   -0.8340 A=    0.0000 R=    0.0000 C=    0.0000
 XYZ=   20.3297   18.8071   30.7015 Q=    0.4170 A=    0.0000 R=    0.0000 C=    0.0000
 XYZ=   21.0297   17.9139   31.7035 Q=    0.4170 A=    0.0000 R=    0.0000 C=    0.0000
 XYZ=    6.0280   12.8369   13.1090 Q=   -0.8340 A=    0.0000 R=    0.0000 C=    0.0000
 XYZ=    5.5516   12.0240   12.9405 Q=    0.4170 A=    0.0000 R=    0.0000 C=    0.0000
 XYZ=    5.3690   13.5249   13.0161 Q=    0.4170 A=    0.0000 R=    0.0000 C=    0.0000
 XYZ=   27.9168   15.6515   22.0312 Q=   -0.8340 A=    0.0000 R=    0.0000 C=    0.0000
 XYZ=   28.0823   16.5621   21.7870 Q=    0.4170 A=    0.0000 R=    0.0000 C=    0.0000
 XYZ=   27.5705   15.7012   22.9222 Q=    0.4170 A=    0.0000 R=    0.0000 C=    0.0000
 XYZ=   26.1057    5.5976   17.5577 Q=   -0.8340 A=    0.0000 R=    0.0000 C=    0.0000
 XYZ=   26.7857    5.0621   17.9665 Q=    0.4170 A=    0.0000 R=    0.0000 C=    0.0000
 XYZ=   26.5865    6.2256   17.0185 Q=    0.4170 A=    0.0000 R=    0.0000 C=    0.0000
 XYZ=   17.1436   11.8818    3.4393 Q=   -0.8340 A=    0.0000 R=    0.0000 C=    0.0000
 XYZ=   16.8430   11.5861    4.2986 Q=    0.4170 A=    0.0000 R=    0.0000 C=    0.0000
 XYZ=   16.9402   12.8170    3.4225 Q=    0.4170 A=    0.0000 R=    0.0000 C=    0.0000
 XYZ=    7.4781   13.8132   16.5580 Q=   -0.8340 A=    0.0000 R=    0.0000 C=    0.0000
 XYZ=    7.0320   13.0895   16.9979 Q=    0.4170 A=    0.0000 R=    0.0000 C=    0.0000
 XYZ=    6.7765   14.4207   16.3237 Q=    0.4170 A=    0.0000 R=    0.0000 C=    0.0000
 XYZ=   24.2957   20.8550   25.0378 Q=   -0.8340 A=    0.0000 R=    0.0000 C=    0.0000
 XYZ=   24.4317   21.7965   25.1447 Q=    0.4170 A=    0.0000 R=    0.0000 C=    0.0000
 XYZ=   25.1112   20.4584   25.3440 Q=    0.4170 A=    0.0000 R=    0.0000 C=    0.0000
 XYZ=    7.7614   25.3798    8.5141 Q=   -0.8340 A=    0.0000 R=    0.0000 C=    0.0000
 XYZ=    7.2228   24.7390    8.0498 Q=    0.4170 A=    0.0000 R=    0.0000 C=    0.0000
 XYZ=    8.5413   24.8915    8.7779 Q=    0.4170 A=    0.0000 R=    0.0000 C=    0.0000
 XYZ=    8.1024   16.8348   13.7055 Q=   -0.8340 A=    0.0000 R=    0.0000 C=    0.0000
 XYZ=    7.9730   17.7487   13.9591 Q=    0.4170 A=    0.0000 R=    0.0000 C=    0.0000
 XYZ=    8.1998   16.8614   12.7537 Q=    0.4170 A=    0.0000 R=    0.0000 C=    0.0000
 XYZ=   26.0732   10.6972   10.4224 Q=   -0.8340 A=    0.0000 R=    0.0000 C=    0.0000
 XYZ=   26.1799   10.8760    9.4882 Q=    0.4170 A=    0.0000 R=    0.0000 C=    0.0000
 XYZ=   26.5572   11.3989   10.8579 Q=    0.4170 A=    0.0000 R=    0.0000 C=    0.0000
 XYZ=   28.5278   23.0437   22.2401 Q=   -0.8340 A=    0.0000 R=    0.0000 C=    0.0000
 XYZ=   28.0951   22.5895   22.9630 Q=    0.4170 A=    0.0000 R=    0.0000 C=    0.0000
 XYZ=   29.2767   22.4890   22.0220 Q=    0.4170 A=    0.0000 R=    0.0000 C=    0.0000
 XYZ=   15.4391   11.5411   24.7514 Q=   -0.8340 A=    0.0000 R=    0.0000 C=    0.0000
 XYZ=   14.9382   11.9343   24.0367 Q=    0.4170 A=    0.0000 R=    0.0000 C=    0.0000
 XYZ=   16.2929   11.3440   24.3660 Q=    0.4170 A=    0.0000 R=    0.0000 C=    0.0000
 XYZ=   15.8877   22.3122   22.5464 Q=   -0.8340 A=    0.0000 R=    0.0000 C=    0.0000
 XYZ=   15.7391   21.4396   22.9108 Q=    0.4170 A=    0.0000 R=    0.0000 C=    0.0000
 XYZ=   16.5762   22.1856   21.8935 Q=    0.4170 A=    0.0000 R=    0.0000 C=    0.0000
 XYZ=   20.1367   20.1465   22.2405 Q=   -0.8340 A=    0.0000 R=    0.0000 C=    0.0000
 XYZ=   20.7283   20.8985   22.2106 Q=    0.4170 A=    0.0000 R=    0.0000 C=    0.0000
 XYZ=   20.0694   19.9309   23.1706 Q=    0.4170 A=    0.0000 R=    0.0000 C=    0.0000
 XYZ=   15.5223   13.8250   26.5374 Q=   -0.8340 A=    0.0000 R=    0.0000 C=    0.0000
 XYZ=   14.9274   13.2862   26.0159 Q=    0.4170 A=    0.0000 R=    0.0000 C=    0.0000
 XYZ=   15.0290   14.0263   27.3327 Q=    0.4170 A=    0.0000 R=    0.0000 C=    0.0000
 XYZ=   30.5289   12.5213   10.9307 Q=   -0.8340 A=    0.0000 R=    0.0000 C=    0.0000
 XYZ=   29.8512   12.7719   11.5586 Q=    0.4170 A=    0.0000 R=    0.0000 C=    0.0000
 XYZ=   30.2463   11.6685   10.6003 Q=    0.4170 A=    0.0000 R=    0.0000 C=    0.0000
 XYZ=   14.8942   28.2612    9.1541 Q=   -0.8340 A=    0.0000 R=    0.0000 C=    0.0000
 XYZ=   14.2541   28.9696    9.0857 Q=    0.4170 A=    0.0000 R=    0.0000 C=    0.0000
 XYZ=   14.6614   27.8046    9.9626 Q=    0.4170 A=    0.0000 R=    0.0000 C=    0.0000
 XYZ=   11.4007    2.8263   17.5277 Q=   -0.8340 A=    0.0000 R=    0.0000 C=    0.0000
 XYZ=   11.4026    1.9573   17.9289 Q=    0.4170 A=    0.0000 R=    0.0000 C=    0.0000
 XYZ=   10.7548    3.3217   18.0313 Q=    0.4170 A=    0.0000 R=    0.0000 C=    0.0000
 XYZ=   22.9939    4.7603   18.7422 Q=   -0.8340 A=    0.0000 R=    0.0000 C=    0.0000
 XYZ=   23.0096    3.9507   19.2525 Q=    0.4170 A=    0.0000 R=    0.0000 C=    0.0000
 XYZ=   23.4662    4.5461   17.9377 Q=    0.4170 A=    0.0000 R=    0.0000 C=    0.0000
 XYZ=   21.2821    9.3067   28.1966 Q=   -0.8340 A=    0.0000 R=    0.0000 C=    0.0000
 XYZ=   20.5622    9.4517   27.5826 Q=    0.4170 A=    0.0000 R=    0.0000 C=    0.0000
 XYZ=   21.0186    9.7732   28.9898 Q=    0.4170 A=    0.0000 R=    0.0000 C=    0.0000
 XYZ=   24.0496   17.3478   22.9162 Q=   -0.8340 A=    0.0000 R=    0.0000 C=    0.0000
 XYZ=   23.1119   17.2384   23.0744 Q=    0.4170 A=    0.0000 R=    0.0000 C=    0.0000
 XYZ=   24.1463   18.2689   22.6745 Q=    0.4170 A=    0.0000 R=    0.0000 C=    0.0000
 XYZ=   14.4123   24.8763   27.3196 Q=   -0.8340 A=    0.0000 R=    0.0000 C=    0.0000
 XYZ=   13.5230   25.2226   27.3947 Q=    0.4170 A=    0.0000 R=    0.0000 C=    0.0000
 XYZ=   14.9492   25.4809   27.8318 Q=    0.4170 A=    0.0000 R=    0.0000 C=    0.0000
 XYZ=    3.0956   18.0905   15.6037 Q=   -0.8340 A=    0.0000 R=    0.0000 C=    0.0000
 XYZ=    2.7095   17.9342   16.4655 Q=    0.4170 A=    0.0000 R=    0.0000 C=    0.0000
 XYZ=    3.9698   18.4323   15.7908 Q=    0.4170 A=    0.0000 R=    0.0000 C=    0.0000
 XYZ=   24.5578   15.5304    6.9262 Q=   -0.8340 A=    0.0000 R=    0.0000 C=    0.0000
 XYZ=   25.4049   15.7142    7.3321 Q=    0.4170 A=    0.0000 R=    0.0000 C=    0.0000
 XYZ=   24.0996   16.3708    6.9360 Q=    0.4170 A=    0.0000 R=    0.0000 C=    0.0000
 XYZ=   19.8491   17.1161   12.3370 Q=   -0.8340 A=    0.0000 R=    0.0000 C=    0.0000
 XYZ=   20.2335   16.4010   12.8441 Q=    0.4170 A=    0.0000 R=    0.0000 C=    0.0000
 XYZ=   20.6012   17.6060   12.0047 Q=    0.4170 A=    0.0000 R=    0.0000 C=    0.0000
 XYZ=   20.1246    3.0046   22.2994 Q=   -0.8340 A=    0.0000 R=    0.0000 C=    0.0000
 XYZ=   19.4553    3.5356   21.8679 Q=    0.4170 A=    0.0000 R=    0.0000 C=    0.0000
 XYZ=   20.2833    2.2802   21.6942 Q=    0.4170 A=    0.0000 R=    0.0000 C=    0.0000
 XYZ=   11.4338   29.3370   10.2578 Q=   -0.8340 A=    0.0000 R=    0.0000 C=    0.0000
 XYZ=   12.2420   29.0768   10.6999 Q=    0.4170 A=    0.0000 R=    0.0000 C=    0.0000
 XYZ=   10.8312   28.6094   10.4115 Q=    0.4170 A=    0.0000 R=    0.0000 C=    0.0000
 XYZ=   16.0836    4.6348   24.9765 Q=   -0.8340 A=    0.0000 R=    0.0000 C=    0.0000
 XYZ=   15.2741    5.1190   24.8139 Q=    0.4170 A=    0.0000 R=    0.0000 C=    0.0000
 XYZ=   16.7690    5.1734   24.5811 Q=    0.4170 A=    0.0000 R=    0.0000 C=    0.0000
 XYZ=   12.2111   11.3575    6.1434 Q=   -0.8340 A=    0.0000 R=    0.0000 C=    0.0000
 XYZ=   12.7563   11.5371    5.3775 Q=    0.4170 A=    0.0000 R=    0.0000 C=    0.0000
 XYZ=   12.8359   11.1953    6.8502 Q=    0.4170 A=    0.0000 R=    0.0000 C=    0.0000
 XYZ=   21.7431   23.6149   21.0447 Q=   -0.8340 A=    0.0000 R=    0.0000 C=    0.0000
 XYZ=   21.8179   24.3257   21.6814 Q=    0.4170 A=    0.0000 R=    0.0000 C=    0.0000
 XYZ=   22.2554   22.8998   21.4221 Q=    0.4170 A=    0.0000 R=    0.0000 C=    0.0000
 XYZ=   12.2322   12.5048   16.2046 Q=   -0.8340 A=    0.0000 R=    0.0000 C=    0.0000
 XYZ=   12.1832   12.1671   17.0989 Q=    0.4170 A=    0.0000 R=    0.0000 C=    0.0000
 XYZ=   11.7003   13.3005   16.2190 Q=    0.4170 A=    0.0000 R=    0.0000 C=    0.0000
 XYZ=    4.0265   12.5344    8.8143 Q=   -0.8340 A=    0.0000 R=    0.0000 C=    0.0000
 XYZ=    4.9690   12.3681    8.8317 Q=    0.4170 A=    0.0000 R=    0.0000 C=    0.0000
 XYZ=    3.9276   13.3974    9.2165 Q=    0.4170 A=    0.0000 R=    0.0000 C=    0.0000
 XYZ=   13.4321   29.8240   14.0369 Q=   -0.8340 A=    0.0000 R=    0.0000 C=    0.0000
 XYZ=   13.5098   29.5353   13.1276 Q=    0.4170 A=    0.0000 R=    0.0000 C=    0.0000
 XYZ=   12.5568   29.5435   14.3038 Q=    0.4170 A=    0.0000 R=    0.0000 C=    0.0000
 XYZ=   12.3245   10.4710   12.6106 Q=   -0.8340 A=    0.0000 R=    0.0000 C=    0.0000
 XYZ=   11.9201   10.1687   11.7974 Q=    0.4170 A=    0.0000 R=    0.0000 C=    0.0000
 XYZ=   12.5672    9.6678   13.0711 Q=    0.4170 A=    0.0000 R=    0.0000 C=    0.0000
 XYZ=   10.1376   11.2215    8.1377 Q=   -0.8340 A=    0.0000 R=    0.0000 C=    0.0000
 XYZ=   11.0299   11.2260    7.7913 Q=    0.4170 A=    0.0000 R=    0.0000 C=    0.0000
 XYZ=    9.5787   11.1979    7.3609 Q=    0.4170 A=    0.0000 R=    0.0000 C=    0.0000
 XYZ=   26.9859   16.3726    7.7975 Q=   -0.8340 A=    0.0000 R=    0.0000 C=    0.0000
 XYZ=   27.0406   17.2032    7.3249 Q=    0.4170 A=    0.0000 R=    0.0000 C=    0.0000
 XYZ=   27.8874   16.0520    7.8245 Q=    0.4170 A=    0.0000 R=    0.0000 C=    0.0000
 XYZ=   25.1913   10.0972   21.6956 Q=   -0.8340 A=    0.0000 R=    0.0000 C=    0.0000
 XYZ=   25.0820    9.5482   22.4721 Q=    0.4170 A=    0.0000 R=    0.0000 C=    0.0000
 XYZ=   26.1112   10.3611   21.7158 Q=    0.4170 A=    0.0000 R=    0.0000 C=    0.0000
 XYZ=   20.0304   13.6785   12.5854 Q=   -0.8340 A=    0.0000 R=    0.0000 C=    0.0000
 XYZ=   19.4324   13.2639   13.2073 Q=    0.4170 A=    0.0000 R=    0.0000 C=    0.0000
 XYZ=   19.6446   13.5017   11.7273 Q=    0.4170 A=    0.0000 R=    0.0000 C=    0.0000
 XYZ=   17.4188   24.7472   22.6171 Q=   -0.8340 A=    0.0000 R=    0.0000 C=    0.0000
 XYZ=   17.8805   24.7894   23.4545 Q=    0.4170 A=    0.0000 R=    0.0000 C=    0.0000
 XYZ=   16.9860   23.8935   22.6244 Q=    0.4170 A=    0.0000 R=    0.0000 C=    0.0000
 XYZ=   26.7324   17.6493   13.3303 Q=   -0.8340 A=    0.0000 R=    0.0000 C=    0.0000
 XYZ=   27.2983   18.4194   13.2765 Q=    0.4170 A=    0.0000 R=    0.0000 C=    0.0000
 XYZ=   26.0126   17.9197   13.9003 Q=    0.4170 A=    0.0000 R=    0.0000 C=    0.0000
 XYZ=   18.5314   18.9303   24.7631 Q=   -0.8340 A=    0.0000 R=    0.0000 C=    0.0000
 XYZ=   17.8423   18.3231   25.0327 Q=    0.4170 A=    0.0000 R=    0.0000 C=    0.0000
 XYZ=   19.3299   18.5764   25.1548 Q=    0.4170 A=    0.0000 R=    0.0000 C=    0.0000
 XYZ=   27.3359   22.0309   15.3724 Q=   -0.8340 A=    0.0000 R=    0.0000 C=    0.0000
 XYZ=   27.5557   22.8526   15.8114 Q=    0.4170 A=    0.0000 R=    0.0000 C=    0.0000
 XYZ=   26.8589   21.5267   16.0316 Q=    0.4170 A=    0.0000 R=    0.0000 C=    0.0000
 XYZ=   15.2145   30.8421   15.9460 Q=   -0.8340 A=    0.0000 R=    0.0000 C=    0.0000
 XYZ=   14.6662   30.3914   15.3038 Q=    0.4170 A=    0.0000 R=    0.0000 C=    0.0000
 XYZ=   14.9240   30.5003   16.7916 Q=    0.4170 A=    0.0000 R=    0.0000 C=    0.0000
 XYZ=    5.1732   20.7166   20.9538 Q=   -0.8340 A=    0.0000 R=    0.0000 C=    0.0000
 XYZ=    4.7701   21.5845   20.9339 Q=    0.4170 A=    0.0000 R=    0.0000 C=    0.0000
 XYZ=    4.7129   20.2541   21.6541 Q=    0.4170 A=    0.0000 R=    0.0000 C=    0.0000
 XYZ=   25.0865   18.6052   15.2328 Q=   -0.8340 A=    0.0000 R=    0.0000 C=    0.0000
 XYZ=   24.9634   18.6114   16.1820 Q=    0.4170 A=    0.0000 R=    0.0000 C=    0.0000
 XYZ=   24.4265   19.2140   14.9012 Q=    0.4170 A=    0.0000 R=    0.0000 C=    0.0000
 XYZ=    4.8488   14.9028   19.3004 Q=   -0.8340 A=    0.0000 R=    0.0000 C=    0.0000
 XYZ=    5.7587   15.0916   19.5297 Q=    0.4170 A=    0.0000 R=    0.0000 C=    0.0000
 XYZ=    4.3332   15.4387   19.9031 Q=    0.4170 A=    0.0000 R=    0.0000 C=    0.0000
 XYZ=   13.8413   13.8702   28.6784 Q=   -0.8340 A=    0.0000 R=    0.0000 C=    0.0000
 XYZ=   13.4772   14.7552   28.6967 Q=    0.4170 A=    0.0000 R=    0.0000 C=    0.0000
 XYZ=   13.8119   13.5797   29.5900 Q=    0.4170 A=    0.0000 R=    0.0000 C=    0.0000
 XYZ=   19.0050   13.6968   23.6204 Q=   -0.8340 A=    0.0000 R=    0.0000 C=    0.0000
 XYZ=   18.8996   12.7455   23.6044 Q=    0.4170 A=    0.0000 R=    0.0000 C=    0.0000
 XYZ=   19.5019   13.8965   22.8271 Q=    0.4170 A=    0.0000 R=    0.0000 C=    0.0000
 XYZ=   11.7215   21.0407   12.1273 Q=   -0.8340 A=    0.0000 R=    0.0000 C=    0.0000
 XYZ=   12.0574   21.8764   11.8032 Q=    0.4170 A=    0.0000 R=    0.0000 C=    0.0000
 XYZ=   10.9238   20.8897   11.6201 Q=    0.4170 A=    0.0000 R=    0.0000 C=    0.0000
 XYZ=   24.8436    9.4692   13.3271 Q=   -0.8340 A=    0.0000 R=    0.0000 C=    0.0000
 XYZ=   24.1830    9.0557   12.7714 Q=    0.4170 A=    0.0000 R=    0.0000 C=    0.0000
 XYZ=   24.7014   10.4086   13.2106 Q=    0.4170 A=    0.0000 R=    0.0000 C=    0.0000
 XYZ=   17.7266   18.9800    3.9468 Q=   -0.8340 A=    0.0000 R=    0.0000 C=    0.0000
 XYZ=   18.5927   18.6854    3.6652 Q=    0.4170 A=    0.0000 R=    0.0000 C=    0.0000
 XYZ=   17.7733   19.9352    3.9067 Q=    0.4170 A=    0.0000 R=    0.0000 C=    0.0000
 XYZ=   13.2556   10.3460    8.5925 Q=   -0.8340 A=    0.0000 R=    0.0000 C=    0.0000
 XYZ=   14.1626   10.0429    8.6361 Q=    0.4170 A=    0.0000 R=    0.0000 C=    0.0000
 XYZ=   12.7687    9.7245    9.1337 Q=    0.4170 A=    0.0000 R=    0.0000 C=    0.0000
 XYZ=   10.0232    6.2631   17.5199 Q=   -0.8340 A=    0.0000 R=    0.0000 C=    0.0000
 XYZ=   10.0276    7.2200   17.4981 Q=    0.4170 A=    0.0000 R=    0.0000 C=    0.0000
 XYZ=    9.3148    6.0128   16.9268 Q=    0.4170 A=    0.0000 R=    0.0000 C=    0.0000
 XYZ=   11.3591   13.1077    9.5305 Q=   -0.8340 A=    0.0000 R=    0.0000 C=    0.0000
 XYZ=   11.1314   13.8554    8.9779 Q=    0.4170 A=    0.0000 R=    0.0000 C=    0.0000
 XYZ=   10.8724   12.3743    9.1544 Q=    0.4170 A=    0.0000 R=    0.0000 C=    0.0000
 XYZ=   11.5083   16.1109   23.1141 Q=   -0.8340 A=    0.0000 R=    0.0000 C=    0.0000
 XYZ=   11.6058   17.0504   22.9588 Q=    0.4170 A=    0.0000 R=    0.0000 C=    0.0000
 XYZ=   11.7024   16.0002   24.0449 Q=    0.4170 A=    0.0000 R=    0.0000 C=    0.0000
 XYZ=   16.9347   16.4223    8.2817 Q=   -0.8340 A=    0.0000 R=    0.0000 C=    0.0000
 XYZ=   16.7384   15.5678    7.8978 Q=    0.4170 A=    0.0000 R=    0.0000 C=    0.0000
 XYZ=   17.2924   16.2206    9.1463 Q=    0.4170 A=    0.0000 R=    0.0000 C=    0.0000
 XYZ=   22.4590    6.2041   24.3783 Q=   -0.8340 A=    0.0000 R=    0.0000 C=    0.0000
 XYZ=   22.9947    5.9353   25.1246 Q=    0.4170 A=    0.0000 R=    0.0000 C=    0.0000
 XYZ=   22.6305    5.5418   23.7089 Q=    0.4170 A=    0.0000 R=    0.0000 C=    0.0000
 XYZ=   14.9637   30.1983   18.8237 Q=   -0.8340 A=    0.0000 R=    0.0000 C=    0.0000
 XYZ=   15.0063   31.0953   19.1551 Q=    0.4170 A=    0.0000 R=    0.0000 C=    0.0000
 XYZ=   15.7795   29.7942   19.1195 Q=    0.4170 A=    0.0000 R=    0.0000 C=    0.0000
 XYZ=   15.7642   14.6719    4.5861 Q=   -0.8340 A=    0.0000 R=    0.0000 C=    0.0000
 XYZ=   16.3695   15.1449    4.0151 Q=    0.4170 A=    0.0000 R=    0.0000 C=    0.0000
 XYZ=   16.1318   14.7753    5.4638 Q=    0.4170 A=    0.0000 R=    0.0000 C=    0.0000
 XYZ=   24.4784   22.9252   18.4792 Q=   -0.8340 A=    0.0000 R=    0.0000 C=    0.0000
 XYZ=   24.7997   23.5137   19.1623 Q=    0.4170 A=    0.0000 R=    0.0000 C=    0.0000
 XYZ=   23.5298   23.0531   18.4789 Q=    0.4170 A=    0.0000 R=    0.0000 C=    0.0000
 XYZ=   23.6099   11.0690   16.1396 Q=   -0.8340 A=    0.0000 R=    0.0000 C=    0.0000
 XYZ=   23.8121   10.1336   16.1597 Q=    0.4170 A=    0.0000 R=    0.0000 C=    0.0000
 XYZ=   24.4000   11.4927   16.4749 Q=    0.4170 A=    0.0000 R=    0.0000 C=    0.0000
 XYZ=   12.6706   19.8404    3.1974 Q=   -0.8340 A=    0.0000 R=    0.0000 C=    0.0000
 XYZ=   12.6601   20.1423    2.2891 Q=    0.4170 A=    0.0000 R=    0.0000 C=    0.0000
 XYZ=   13.5815   19.5941    3.3579 Q=    0.4170 A=    0.0000 R=    0.0000 C=    0.0000
 XYZ=   11.6759   25.9314   27.7388 Q=   -0.8340 A=    0.0000 R=    0.0000 C=    0.0000
 XYZ=   11.4293   25.7395   28.6436 Q=    0.4170 A=    0.0000 R=    0.0000 C=    0.0000
 XYZ=   11.3901   25.1634   27.2441 Q=    0.4170 A=    0.0000 R=    0.0000 C=    0.0000
 XYZ=   17.9747    3.4530   16.4925 Q=   -0.8340 A=    0.0000 R=    0.0000 C=    0.0000
 XYZ=   17.8167    2.7815   17.1560 Q=    0.4170 A=    0.0000 R=    0.0000 C=    0.0000
 XYZ=   17.1412    3.5326   16.0285 Q=    0.4170 A=    0.0000 R=    0.0000 C=    0.0000
 XYZ=   20.0632   24.1473   27.9207 Q=   -0.8340 A=    0.0000 R=    0.0000 C=    0.0000
 XYZ=   19.2844   24.6715   28.1076 Q=    0.4170 A=    0.0000 R=    0.0000 C=    0.0000
 XYZ=   19.7470   23.4391   27.3598 Q=    0.4170 A=    0.0000 R=    0.0000 C=    0.0000
 XYZ=   21.1667   24.9716   11.4716 Q=   -0.8340 A=    0.0000 R=    0.0000 C=    0.0000
 XYZ=   20.9336   24.3600   12.1701 Q=    0.4170 A=    0.0000 R=    0.0000 C=    0.0000
 XYZ=   21.9836   25.3735   11.7673 Q=    0.4170 A=    0.0000 R=    0.0000 C=    0.0000
 XYZ=   20.0012   27.5480   12.7161 Q=   -0.8340 A=    0.0000 R=    0.0000 C=    0.0000
 XYZ=   20.1560   26.6543   12.4100 Q=    0.4170 A=    0.0000 R=    0.0000 C=    0.0000
 XYZ=   19.9777   28.0746   11.9171 Q=    0.4170 A=    0.0000 R=    0.0000 C=    0.0000
 XYZ=   23.3998   19.8273   18.8344 Q=   -0.8340 A=    0.0000 R=    0.0000 C=    0.0000
 XYZ=   24.1449   19.2358   18.9399 Q=    0.4170 A=    0.0000 R=    0.0000 C=    0.0000
 XYZ=   23.5018   20.4695   19.5369 Q=    0.4170 A=    0.0000 R=    0.0000 C=    0.0000
 XYZ=   27.5910   12.8492   11.2921 Q=   -0.8340 A=    0.0000 R=    0.0000 C=    0.0000
 XYZ=   27.1534   13.3735   10.6215 Q=    0.4170 A=    0.0000 R=    0.0000 C=    0.0000
 XYZ=   27.6850   13.4425   12.0373 Q=    0.4170 A=    0.0000 R=    0.0000 C=    0.0000
 XYZ=    5.4150   18.5664    9.9524 Q=   -0.8340 A=    0.0000 R=    0.0000 C=    0.0000
 XYZ=    5.6595   18.4566    9.0335 Q=    0.4170 A=    0.0000 R=    0.0000 C=    0.0000
 XYZ=    4.4682   18.7058    9.9339 Q=    0.4170 A=    0.0000 R=    0.0000 C=    0.0000
 XYZ=   10.3105   23.2678    4.2640 Q=   -0.8340 A=    0.0000 R=    0.0000 C=    0.0000
 XYZ=   10.8393   22.4881    4.4331 Q=    0.4170 A=    0.0000 R=    0.0000 C=    0.0000
 XYZ=   10.6936   23.6512    3.4750 Q=    0.4170 A=    0.0000 R=    0.0000 C=    0.0000
 XYZ=   22.7484   11.4075   22.7810 Q=   -0.8340 A=    0.0000 R=    0.0000 C=    0.0000
 XYZ=   23.5061   11.1815   22.2415 Q=    0.4170 A=    0.0000 R=    0.0000 C=    0.0000
 XYZ=   22.4755   10.5772   23.1712 Q=    0.4170 A=    0.0000 R=    0.0000 C=    0.0000
 XYZ=   26.4804   26.5549   16.4381 Q=   -0.8340 A=    0.0000 R=    0.0000 C=    0.0000
 XYZ=   26.5956   25.7236   16.8983 Q=    0.4170 A=    0.0000 R=    0.0000 C=    0.0000
 XYZ=   27.1403   27.1339   16.8195 Q=    0.4170 A=    0.0000 R=    0.0000 C=    0.0000
 XYZ=   21.4822   15.2824   14.6884 Q=   -0.8340 A=    0.0000 R=    0.0000 C=    0.0000
 XYZ=   21.4326   15.1842   15.6393 Q=    0.4170 A=    0.0000 R=    0.0000 C=    0.0000
 XYZ=   20.8545   14.6448   14.3483 Q=    0.4170 A=    0.0000 R=    0.0000 C=    0.0000
 XYZ=   20.5085    6.0748   19.4723 Q=   -0.8340 A=    0.0000 R=    0.0000 C=    0.0000
 XYZ=   20.4273    6.9362   19.8817 Q=    0.4170 A=    0.0000 R=    0.0000 C=    0.0000
 XYZ=   21.4462    5.8844   19.4981 Q=    0.4170 A=    0.0000 R=    0.0000 C=    0.0000
 XYZ=   20.0256   11.0376   22.3994 Q=   -0.8340 A=    0.0000 R=    0.0000 C=    0.0000
 XYZ=   19.9506   11.0134   21.4454 Q=    0.4170 A=    0.0000 R=    0.0000 C=    0.0000
 XYZ=   20.9507   11.2209   22.5628 Q=    0.4170 A=    0.0000 R=    0.0000 C=    0.0000
 XYZ=   20.6639   19.5428   29.0389 Q=   -0.8340 A=    0.0000 R=    0.0000 C=    0.0000
 XYZ=   20.7288   19.1919   28.1507 Q=    0.4170 A=    0.0000 R=    0.0000 C=    0.0000
 XYZ=   21.3343   20.2250   29.0771 Q=    0.4170 A=    0.0000 R=    0.0000 C=    0.0000
 XYZ=   29.1010   16.6335   15.2333 Q=   -0.8340 A=    0.0000 R=    0.0000 C=    0.0000
 XYZ=   29.0508   16.0394   15.9821 Q=    0.4170 A=    0.0000 R=    0.0000 C=    0.0000
 XYZ=   28.2008   16.9315   15.1026 Q=    0.4170 A=    0.0000 R=    0.0000 C=    0.0000
 XYZ=   22.6068   21.9009   23.1305 Q=   -0.8340 A=    0.0000 R=    0.0000 C=    0.0000
 XYZ=   23.1039   21.9466   22.3138 Q=    0.4170 A=    0.0000 R=    0.0000 C=    0.0000
 XYZ=   23.2282   21.5539   23.7706 Q=    0.4170 A=    0.0000 R=    0.0000 C=    0.0000
 XYZ=    7.6825   22.3127   15.2511 Q=   -0.8340 A=    0.0000 R=    0.0000 C=    0.0000
 XYZ=    7.0677   22.7456   14.6588 Q=    0.4170 A=    0.0000 R=    0.0000 C=    0.0000
 XYZ=    8.5343   22.6893   15.0302 Q=    0.4170 A=    0.0000 R=    0.0000 C=    0.0000
 XYZ=    9.9977   26.9763   11.1185 Q=   -0.8340 A=    0.0000 R=    0.0000 C=    0.0000
 XYZ=    9.1380   26.7203   10.7845 Q=    0.4170 A=    0.0000 R=    0.0000 C=    0.0000
 XYZ=    9.9359   26.8466   12.0649 Q=    0.4170 A=    0.0000 R=    0.0000 C=    0.0000
 XYZ=   17.0979   28.1030   20.9990 Q=   -0.8340 A=    0.0000 R=    0.0000 C=    0.0000
[...]
 002335,0.00005584,-0.00003378,-0.00012853,-0.00012944,0.00001114,0.000
 04709,0.00004522,0.00004196,0.00014309,0.00010488,0.00018628,0.0000788
 1,-0.00044831,-0.00008876,-0.00015641,0.00012581,-0.00020166,0.0000567
 0,0.00047192,-0.00018083,0.00000674,-0.00004621,0.00007202,-0.00002295
 ,0.00003586,0.00008167,-0.00001419,0.00002209,0.00001581,0.00026824,0.
 00009480,0.00004032,-0.00012544,0.00000400,0.00002399,-0.00009428,-0.0
 0006349,0.00005873,0.00018271,-0.00019775,-0.00002008,-0.00002907,0.00
 005672,-0.00003497,-0.00007804,0.00016057,0.00392600,0.00057471,0.0020
 3195,-0.00370152,-0.00085124,-0.00131878,-0.00049888,-0.00016455,-0.00
 118322,-0.00010259,0.00018747,0.00003848,0.00005201,-0.00013196,0.0000
 0991,0.00000525,-0.00005002,-0.00002510,0.00009821,-0.00016781,-0.0002
 1727,-0.00004962,0.00002097,0.00007516,-0.00015590,0.00012191,0.000175
 88,-0.00009649,-0.00019617,-0.00006201,0.00004796,0.00014588,0.0000089
 1,0.00007193,0.00005924,0.00006940,-0.20014459,0.43728396,0.00038178,0
 .00390821,-0.00275818,0.00005213,0.00059172,-0.00070380,-0.00073143,-0
 .00078199,-0.00021063,0.00139876,0.00249100,0.00148792,0.00046641,-0.0
 0410884,-0.00135243,-0.00001381,-0.00000793,0.00003061,-0.00002078,-0.
 00004046,-0.00004281,-0.00062835,-0.00180759,-0.00197943,0.00035061,-0
 .00166546,0.00224099,-0.00027037,-0.00097834,0.00078804,0.00013603,0.0
 0046002,-0.00010747,-0.00107946,0.00142006,-0.00058526,-0.00009597,-0.
 00034305,0.00014909,-0.00002523,0.00005616,-0.00000287,0.00012192,0.00
 005332,-0.00011104,-0.00016716,-0.00009468,0.00000485,0.00004671,0.000
 03820,-0.00002000,0.00010442,0.00003799,0.00004007,0.00015038,0.000027
 57,-0.00024749,-0.00011573,-0.00004368,0.00013153,-0.00008174,0.000009
 51,0.00013676,-0.00012604,0.00004051,0.00072288,-0.00013437,-0.0001579
 1,-0.00030038,0.00032795,0.00002990,-0.00078927,0.00240388,-0.00171120
 ,0.00149377,-0.00064752,0.00014479,-0.00083146,0.00057528,0.00032771,-
 0.00095275,-0.00025738,0.00052310,-0.00057357,0.00006774,-0.00009245,0
 .00022065,0.00025599,-0.00041637,0.00078297,-0.00021522,0.00098340,0.0
 0032315,-0.00004708,-0.00001098,-0.00055472,0.00001514,-0.00005551,0.0
 0010663,-0.00000380,-0.00011760,-0.00018405,-0.00002512,0.00009943,0.0
 0011176,0.00004885,0.00004808,0.00010365,0.00000169,-0.00019493,-0.000
 00276,-0.00000349,0.00008611,-0.00002292,0.00001856,0.00016302,0.00002
 136,0.00037437,-0.00024917,-0.00006348,-0.00019556,0.00005185,0.000037
 64,-0.00028931,0.00023097,0.00004334,-0.00014904,-0.00007190,0.0001561
 9,0.00009409,0.00006527,-0.00004102,0.00003372,0.00002125,-0.00010732,
 -0.00030646,-0.00006806,0.00001500,0.00012170,0.00005313,-0.00001894,0
 .00015241,0.00001986,0.00002289,0.00013096,-0.00009978,-0.00022345,-0.
 00002854,0.00003761,0.00006602,-0.00014294,0.00010113,0.00012922,-0.00
 341103,0.00039862,0.00052284,-0.00108049,0.00131739,-0.00306570,0.0007
 5485,-0.00038345,0.00061813,-0.00020493,-0.00000188,-0.00012036,0.0000
 8583,-0.00001967,0.00012716,0.00006004,0.00000460,0.00003400,0.0001594
 9,-0.00029156,0.00005060,-0.00007369,0.00009318,-0.00000914,-0.0001707
 3,0.00019526,-0.00006193,0.00001478,-0.00015982,0.00022804,0.00001702,
 0.00005584,-0.00015906,-0.00004028,0.00009494,-0.00015340,0.10899034,0
 .21316323,0.19089688,0.00002749,-0.00019491,-0.00040448,-0.00000412,0.
 00000298,-0.00000736,0.00003190,0.00001350,0.00001580,0.00011048,-0.00
 014144,-0.00038283,-0.00058811,0.00014875,0.00030619,0.00001260,-0.000
 00646,-0.00000291,0.00002194,-0.00000739,-0.00001032,-0.00038023,0.000
 20020,0.00031292,-0.00025860,0.00018440,0.00031788,0.00004778,0.000041
 40,0.00008859,0.00001978,-0.00006220,-0.00002528,0.00189485,-0.0002383
 1,-0.00040718,-0.00005217,0.00008129,0.00004123,0.00002495,-0.00002257
 ,-0.00001757,0.00003690,-0.00004783,-0.00003681,0.00000072,0.00003620,
 0.00003788,-0.00000301,-0.00001107,-0.00000944,0.00000641,-0.00001256,
 -0.00001844,-0.00013972,0.00006535,-0.00003496,0.00009325,-0.00003606,
 0.00002673,0.00009075,-0.00006383,0.00002638,-0.00001956,0.00018632,0.
 00008232,-0.00006312,-0.00012232,-0.00002973,0.00005686,-0.00016014,-0
 .00011453,0.00235741,-0.00330613,-0.00475930,-0.00365430,-0.00077853,0
 .00230010,-0.00106930,0.00138967,-0.00037563,-0.00013232,-0.00014527,0
 .00030851,0.00002199,0.00001673,-0.00008388,0.00014638,0.00002607,-0.0
 0026107,-0.00066867,0.00024680,-0.00010936,0.00031856,-0.00001840,-0.0
 0004462,0.00010261,0.00008797,0.00004508,-0.00006266,0.00001156,0.0000
 2495,0.00005270,-0.00000433,-0.00001675,0.00002015,-0.00001277,-0.0000
 1896,-0.00008127,-0.00003004,-0.00001105,0.00003472,-0.00000823,-0.000
 01308,0.00006604,0.00005465,0.00002323,0.00006854,-0.00055105,-0.00132
 510,-0.00014003,-0.00001540,0.00038784,-0.00000683,0.00083556,0.001488
 73,0.00000151,0.00007157,0.00005695,-0.00000288,-0.00002425,-0.0000220
 1,-0.00002292,-0.00003563,-0.00002832,0.00005225,0.00003920,0.00011080
 ,-0.00002132,-0.00003626,-0.00004121,0.00000242,-0.00000144,-0.0000639
 2,-0.00023264,-0.00001030,-0.00017457,0.00003511,0.00002864,0.00005676
 ,0.00027191,0.00003454,0.00025418,0.00170663,-0.00039204,0.00092241,-0
 .00223007,0.00018370,-0.00083483,-0.00024604,0.00012597,-0.00042258,-0
 .00002035,0.00002499,0.00006570,0.00001482,-0.00001376,-0.00002860,0.0
 0000206,-0.00000781,-0.00002222,-0.00020052,-0.00006051,-0.00001459,0.
 00007641,0.00007478,0.00004991,0.00022218,0.00002300,-0.00002467,-0.00
 007457,0.00003993,0.00002049,0.00004912,-0.00004068,-0.00001256,0.0000
 2447,-0.00002841,-0.00000548,-0.49522348,0.08534625,-0.14817199,0.5083
 5377,-0.00070235,0.00049366,-0.00130462,-0.00002033,0.00031900,-0.0003
 2522,-0.00008127,-0.00039494,0.00008092,0.00026877,0.00180815,-0.00038
 495,0.00040269,-0.00108114,0.00051293,-0.00000851,-0.00000187,0.000025
 53,0.00001140,0.00002647,0.00003727,-0.00028642,-0.00115238,-0.0001375
 5,0.00062053,-0.00009531,0.00106206,0.00040965,0.00003373,0.00068300,-
 0.00004233,-0.00005302,0.00001341,-0.00086853,-0.00001412,-0.00243922,
 0.00008370,0.00001417,0.00004975,-0.00001378,-0.00000820,-0.00002287,-
 0.00007278,0.00001879,-0.00000080,0.00003367,-0.00004810,0.00000314,-0
 .00001054,0.00001132,-0.00000396,-0.00001973,0.00001792,-0.00000622,0.
 00001758,-0.00011712,0.00000304,-0.00001468,0.00006413,0.00002654,-0.0
 0001181,0.00010261,-0.00003039,0.00024998,0.00002168,0.00009171,-0.000
 11433,0.00006667,-0.00003651,-0.00023366,-0.00006151,-0.00008584,-0.00
 249963,-0.00255755,0.00297988,-0.00158349,0.00194882,0.00072596,0.0013
 4089,-0.00021779,-0.00069973,-0.00006192,-0.00007582,-0.00027056,0.000
 00673,0.00002098,0.00007750,0.00003345,0.00019895,0.00024180,0.0003368
 3,0.00086147,-0.00086629,-0.00022974,-0.00063596,0.00004158,0.00007428
 ,0.00006397,0.00024787,0.00001807,-0.00001746,0.00002967,-0.00001194,0
 .00000335,-0.00001978,-0.00001685,0.00001242,-0.00001632,0.00003986,0.
 00006123,0.00006878,-0.00001600,-0.00001540,-0.00001947,-0.00003939,-0
 .00007792,-0.00006034,-0.00008299,0.00003113,0.00052884,0.00006953,0.0
 0011239,-0.00014061,0.00009688,-0.00016077,-0.00060923,0.00006926,-0.0
 0002924,0.00000292,-0.00002493,0.00001571,-0.00000782,-0.00002318,0.00
 001805,-0.00000079,-0.00000715,-0.00007858,-0.00004859,-0.00000768,0.0
 0004451,0.00001120,-0.00001178,0.00002666,0.00002571,0.00003758,-0.000
 08629,0.00011390,-0.00000066,0.00001120,-0.00003614,-0.00005864,0.0000
 3649,-0.00012090,-0.00036589,0.00091926,-0.00055370,0.00135189,-0.0022
 7740,0.00111007,-0.00010706,0.00009903,0.00009648,0.00003937,-0.000063
 73,-0.00002022,-0.00002006,0.00004541,-0.00000247,-0.00000292,0.000017
 73,0.00001078,0.00002884,0.00007085,0.00013411,0.00000225,-0.00001979,
 -0.00006003,-0.00002123,-0.00004382,-0.00011700,0.00008993,0.00007504,
 0.00004644,-0.00005951,-0.00005714,-0.00001694,-0.00005220,-0.00000803
 ,-0.00004260,0.03973691,-0.03473803,-0.00769582,-0.08185421,0.04336851
 ,-0.00023198,-0.00152973,0.00101067,-0.00002389,-0.00014259,0.00015517
 ,0.00021840,0.00015666,0.00020310,-0.00053165,-0.00005019,-0.00042995,
 0.00061365,0.00067159,-0.00010212,0.00000182,0.00000511,-0.00000772,0.
 00000825,0.00003889,0.00004525,0.00060207,0.00010670,0.00049896,0.0000
 4808,0.00066685,-0.00078397,0.00017510,0.00049328,-0.00016238,-0.00006
 481,-0.00018234,0.00007276,-0.00130090,-0.00265537,-0.00256876,0.00006
 856,0.00012667,-0.00006238,0.00000149,-0.00001903,0.00000194,-0.000072
 55,-0.00000507,0.00005041,0.00007047,0.00000137,-0.00001695,-0.0000181
 2,-0.00000708,0.00000915,-0.00004875,-0.00000310,-0.00000925,0.0000133
 8,-0.00005562,0.00012871,-0.00000308,0.00004329,-0.00007677,-0.0000121
 9,0.00003560,-0.00007764,0.00006185,-0.00000772,-0.00030174,0.00004178
 ,0.00004708,0.00010298,-0.00014246,-0.00002842,0.00033811,-0.00351454,
 0.00315043,-0.00127551,0.00224380,0.00005752,0.00061591,-0.00075896,-0
 .00064630,0.00166134,0.00026243,-0.00004555,-0.00005294,-0.00003624,0.
 00003703,-0.00001505,-0.00029861,0.00012397,-0.00003591,-0.00007795,-0
 .00070506,-0.00020404,0.00000469,-0.00000365,0.00035291,-0.00000667,0.
 00003826,-0.00005665,0.00003433,0.00004231,0.00007002,-0.00001548,-0.0
 0004116,-0.00004362,-0.00003239,-0.00001105,-0.00003661,0.00003437,0.0
 0010962,0.00001635,-0.00001282,-0.00003789,0.00001086,-0.00003752,-0.0
 0010753,-0.00002726,-0.00024721,0.00037060,0.00061266,0.00018161,-0.00
 001970,-0.00018992,0.00025554,-0.00051426,-0.00069334,0.00007230,0.000
 00276,-0.00006592,-0.00004093,-0.00001161,0.00001787,-0.00001269,0.000
 00402,0.00004094,0.00006598,-0.00003745,-0.00007482,-0.00003611,0.0000
 1758,0.00002116,-0.00005664,0.00000687,0.00003920,0.00004864,0.0000381
 1,0.00019148,0.00000175,-0.00002891,-0.00006151,-0.00006564,-0.0000628
 3,-0.00019324,-0.00135304,0.00035707,-0.00010755,0.00209400,-0.0003015
 0,-0.00073868,0.00001380,-0.00019039,0.00039395,0.00009988,-0.00003453
 ,0.00000710,-0.00004722,0.00002864,-0.00003647,-0.00002431,0.00000616,
 -0.00000009,0.00000319,0.00017540,-0.00000210,0.00000435,-0.00007872,-
 0.00002111,-0.00000654,-0.00011479,0.00002056,0.00001451,0.00007398,-0
 .00010538,-0.00001237,-0.00002472,0.00007834,0.00000656,-0.00003859,0.
 00006051,-0.17840097,0.01197531,-0.06547683,0.15956799,-0.00617083,0.0
 6291273,0.00052236,0.00063789,0.00022940,-0.00001326,-0.00011812,0.000
 05835,-0.00011868,0.00004957,-0.00005323,0.00031366,-0.00053504,0.0005
 3113,0.00001278,-0.00045015,-0.00089145,0.00001379,-0.00001180,-0.0000
 1528,0.00001577,-0.00002624,-0.00004767,-0.00026106,0.00028957,-0.0002
 6271,-0.00016038,-0.00023604,-0.00009117,-0.00033068,-0.00014667,-0.00
 024818,0.00005183,0.00006515,-0.00003590,-0.00060437,0.00042638,0.0007
 1386,-0.00008761,-0.00001583,0.00001123,0.00001251,-0.00000371,0.00000
 322,0.00008956,-0.00003586,-0.00003391,-0.00004343,0.00007306,0.000041
 20,0.00000568,-0.00001569,-0.00000815,0.00003396,-0.00002210,-0.000009
 33,-0.00005588,0.00002343,-0.00004728,0.00003393,-0.00001109,0.0000381
 8,0.00002360,-0.00001745,0.00002917,-0.00019789,0.00003777,0.00006029,
 0.00007880,-0.00012452,-0.00002042,0.00020370,0.00004706,-0.00008546,-
 0.00071255,-0.00026490,0.00005460,-0.00052126,0.00050005,0.00034543,-0
 .00015683,0.00009937,0.00006898,-0.00049911,-0.00023056,0.00031822,0.0
 0002561,0.00000622,-0.00006523,0.00046283,-0.00007092,-0.00003308,-0.0
 0017947,-0.00016655,0.00016491,0.00003581,0.00011852,-0.00004949,0.000
 05100,0.00001371,-0.00003802,-0.00003586,0.00000036,-0.00002047,0.0000
 1957,0.00000835,0.00001525,0.00002615,-0.00000905,0.00000863,-0.000035
 83,-0.00004024,-0.00002440,0.00001789,0.00001003,0.00000124,0.00002849
 ,0.00004927,0.00002565,0.00004075,-0.00009129,-0.00015908,-0.00002754,
 0.00002777,0.00005576,-0.00004380,0.00010139,0.00015521,-0.00006416,0.
 00007595,0.00005139,0.00002519,-0.00003114,-0.00001835,0.00000350,-0.0
 0005218,-0.00002906,0.00005043,0.00013130,0.00021028,-0.00000269,-0.00
 008673,-0.00005606,0.00003273,-0.00001904,-0.00011412,-0.00003323,-0.0
 0001206,-0.00007583,0.00000538,0.00001157,0.00002648,0.00002847,0.0000
 1864,0.00007203,0.00067122,0.00071449,0.00349885,-0.00209063,-0.003057
 11,-0.00654865,0.00050888,0.00022056,-0.00076737,-0.00008728,0.0000629
 6,0.00007433,0.00004246,-0.00003924,-0.00000490,0.00001179,-0.00001491
 ,-0.00002923,-0.00001642,-0.00006164,-0.00004089,0.00000368,0.00002180
 ,0.00001983,0.00000123,0.00003481,0.00002517,-0.00006268,-0.00003348,0
 .00000952,0.00004295,0.00001732,-0.00001346,0.00003250,0.00000233,0.00
 000340,-0.08246437,0.11082270,0.04023537,-0.01399480,0.04280210,0.0212
 1829,0.10441536,-0.00019985,-0.00025967,-0.00033214,-0.00001735,0.0001
 5153,-0.00014446,-0.00000066,-0.00011310,0.00000957,-0.00001448,0.0006
 2123,-0.00061126,0.00022331,0.00020871,0.00047952,-0.00000117,0.000002
 40,0.00000559,0.00000819,0.00001411,0.00002142,-0.00001786,-0.00059601
 ,0.00026515,0.00005619,0.00004185,0.00029318,0.00019924,0.00010163,0.0
 0030098,-0.00001799,-0.00006999,0.00000740,-0.00007686,-0.00092388,-0.
 00076864,0.00003676,0.00005164,0.00004935,-0.00000173,-0.00001738,-0.0
 0002294,-0.00003397,-0.00001310,-0.00001929,0.00003586,-0.00002897,0.0
 0002316,-0.00001264,0.00000589,-0.00000819,-0.00001829,0.00001280,-0.0
 0001471,-0.00000017,-0.00010220,0.00002576,-0.00000624,0.00006365,0.00
 000379,0.00000443,0.00007606,-0.00003847,0.00009366,0.00016251,0.00008
 193,-0.00009907,-0.00009826,-0.00003653,-0.00001335,-0.00009993,-0.000
 08759,-0.00099670,0.00038698,0.00061374,0.00033458,0.00030044,-0.00015
 136,0.00011181,-0.00010668,-0.00005618,-0.00012512,-0.00025130,-0.0003
 8474,0.00002554,0.00001805,0.00007315,-0.00002277,0.00037866,0.0002436
 7,-0.00009227,0.00032535,-0.00007429,-0.00000198,-0.00006685,-0.000056
 81,0.00001620,-0.00002415,0.00008756,0.00000592,-0.00000588,0.00004236
 ,0.00000102,-0.00000649,-0.00002712,-0.00001183,0.00000670,-0.00002432
 ,0.00000889,0.00004601,0.00004452,-0.00000137,-0.00001736,-0.00001673,
 -0.00001273,-0.00004798,-0.00003470,-0.00009253,0.00002382,0.00021305,
 0.00005339,0.00004828,-0.00006229,0.00008599,-0.00009002,-0.00021770,0
 .00006009,0.00002719,0.00003846,-0.00002541,-0.00000313,-0.00002154,-0
 .00003743,-0.00001243,-0.00002002,0.00002921,-0.00008391,0.00003224,-0
 .00002641,0.00002593,-0.00002301,-0.00000903,0.00003872,-0.00001194,-0
 .00001636,-0.00005432,0.00008930,0.00000683,0.00000916,-0.00002573,0.0
 0000517,0.00001151,-0.00007536,-0.00040464,-0.00197081,0.00016268,-0.0
 0140429,0.00254968,-0.00235041,0.00050845,0.00048526,0.00051692,0.0000
 2920,-0.00006816,0.00000706,-0.00001727,0.00004762,-0.00000954,-0.0000
 0413,0.00002257,0.00000360,-0.00002601,0.00005325,0.00006575,0.0000144
 5,-0.00001218,-0.00002775,0.00003396,-0.00003187,-0.00004584,0.0000203
 8,0.00006419,0.00002955,-0.00000527,-0.00004819,-0.00001025,-0.0000196
 0,-0.00002239,-0.00002678,0.15448025,-0.40074334,-0.20257690,-0.001636
 84,-0.00527254,-0.00680718,-0.14489166,0.39303661,0.00014422,-0.000101
 12,0.00005538,-0.00001146,-0.00034166,0.00031982,0.00016845,0.00041869
 ,0.00010015,-0.00037072,-0.00185034,0.00038436,0.00000078,-0.00013871,
 -0.00081287,0.00001575,-0.00000902,-0.00001842,-0.00000437,-0.00001291
 ,-0.00003222,0.00026621,0.00136599,0.00030372,0.00000456,0.00021640,-0
 .00020421,-0.00014434,0.00012806,-0.00035162,-0.00005776,-0.00009552,-
 0.00000689,-0.00044035,0.00056841,0.00031076,0.00000990,0.00008529,-0.
 00004315,0.00000666,-0.00001885,0.00000547,-0.00001591,-0.00002295,0.0
 0002547,0.00004304,0.00007134,0.00000864,-0.00001678,-0.00002020,0.000
 00732,-0.00002269,-0.00002754,-0.00001361,-0.00006459,0.00004614,0.000
 08425,0.00005278,-0.00001973,-0.00005566,0.00002832,-0.00004401,-0.000
 02832,0.00003744,0.00002113,-0.00018994,0.00001512,0.00002710,0.000111
 82,-0.00007598,-0.00003748,0.00015518,-0.00030351,0.00017339,0.0001919
 3,0.00036216,-0.00014939,0.00015711,0.00015839,-0.00003139,0.00012488,
 0.00006229,-0.00025006,0.00072301,-0.00004367,0.00002661,-0.00018802,0
 .00006000,-0.00011104,-0.00069901,0.00008160,-0.00009837,-0.00037361,0
 .00000856,-0.00013255,0.00014594,-0.00001030,0.00008020,0.00004830,-0.
 00000325,0.00004734,0.00004809,0.00000723,-0.00003259,-0.00002561,-0.0
 0000836,-0.00002332,-0.00002701,-0.00000205,0.00005293,-0.00000345,0.0
 0000163,-0.00002370,0.00000749,-0.00000408,-0.00004046,-0.00000298,-0.
 00008390,0.00010620,0.00004123,0.00005613,-0.00003481,-0.00001155,0.00
 003571,-0.00008712,-0.00005450,0.00003448,0.00004621,-0.00004367,-0.00
 002116,-0.00003366,0.00001240,-0.00001499,-0.00002143,0.00003691,0.000
 16179,0.00011251,0.00006663,-0.00004719,-0.00006456,-0.00000813,-0.000
 05596,-0.00003562,-0.00005416,-0.00003002,0.00006467,0.00004271,0.0000
 0980,-0.00001876,-0.00002184,0.00002033,-0.00003936,-0.00001769,0.0030
 1140,0.00103869,0.00082507,-0.00530971,-0.00337643,-0.00161083,-0.0007
 3075,-0.00001538,-0.00124810,0.00004460,0.00005669,0.00007740,-0.00001
 362,-0.00003160,-0.00005323,-0.00002429,-0.00001464,-0.00002672,-0.000
 02917,0.00006259,-0.00001498,0.00001309,-0.00002680,0.00000416,0.00002
 214,-0.00003298,0.00001278,-0.00000416,0.00004251,-0.00005953,-0.00000
 610,-0.00001664,0.00003774,0.00001330,-0.00002542,0.00004227,0.0699176
 5,-0.22041906,-0.12225449,-0.00869572,0.01182855,0.00751874,-0.0581824
 6,0.20684555,0.12284238\\-0.00792775,0.01695853,-0.06742138,0.00875347
 ,0.00475316,0.05843992,-0.01332578,-0.00168658,-0.01937502,0.00025783,
 -0.01973032,-0.01843880,0.01438537,0.01248472,0.01762618,-0.00215222,-
 0.00043206,-0.01081531,0.00785992,0.01791543,-0.00418844,0.00047592,0.
 01078028,0.01064801,0.01135716,-0.02408243,0.04098792,0.00637701,0.000
 47330,0.00434714,0.00910589,0.00073513,0.01160212,-0.02892313,-0.01108
 128,-0.01910714,0.01503943,-0.00208694,-0.00477889,0.00769273,-0.02180
 241,-0.01413263,-0.01519941,0.00562319,0.01637106,0.00247131,0.0001605
 8,0.01265685,-0.01153216,-0.01078178,0.00057340,0.01065507,0.00433738,
 -0.01344501,-0.00608010,0.00654176,-0.02155819,0.00571842,0.00900395,0
 .00362429,0.00133885,-0.01907690,0.00749923,-0.01262862,-0.01715910,0.
 01116960,-0.01600393,0.01515593,0.00419871,0.01405125,0.00154225,-0.00
 863326,-0.01035644,-0.00737999,-0.01193538,0.00041694,0.01729046,0.007
 98860,0.01408079,-0.02207221,0.02117149,-0.00612446,0.01604697,0.01199
 045,-0.00201505,-0.00109975,-0.02559250,0.01229139,-0.01082055,-0.0012
 2064,-0.01055449,0.01422744,0.00492008,0.00248647,-0.00401686,-0.00802
 910,0.00524674,-0.00659044,0.00536421,0.01331567,0.00203652,-0.0103471
 6,0.00767943,-0.00030421,0.00836045,-0.01922995,0.00265895,-0.00461930
 ,0.00024825,-0.02292159,-0.02242186,-0.01361016,-0.00186482,0.00991074
 ,0.00568253,0.01412046,0.01178396,-0.00318164,-0.02221919,-0.01935577,
 0.01978626,0.01964529,0.00225911,-0.00526195,0.00763508,0.01545203,-0.
 00362834,-0.00553026,-0.00888811,-0.00331314,0.01024627,-0.01337026,-0
 .01261894,0.00215387,0.01808394,-0.01470082,0.00998909,0.01865520,-0.0
 0081146,-0.01363184,-0.00500322,0.01272033,0.00527730,-0.01083780,-0.0
 1121191,0.00298632,-0.00677081,0.00768718,-0.00619761,-0.01329910,0.00
 808301,0.00255826,0.01616585,-0.01423991,-0.00106117,0.00947946,0.0097
 0943,-0.00838394,0.00385198,-0.00064959,0.00990177,-0.00899626,-0.0052
 2366,-0.00422662,0.00724187,0.00952903,0.00464574,-0.00118614,-0.00921
 775,0.00490594,-0.01242208,0.00084232,-0.00193824,-0.00198970,0.016424
 48,0.00062397,-0.00653732,-0.00425283,0.00059522,0.00987826,0.01443294
 ,-0.01965138,0.01058243,-0.00127262,0.00632816,0.00462269,-0.00957353,
 0.01057795,-0.01376286,-0.00741955,-0.00218380,-0.00515564,0.01315558,
 -0.00456672,-0.00118596,-0.00614805,0.02137266,0.00966445\\\@


 KNOWLEDGE IS OF TWO KINDS:  WE KNOW A SUBJECT OURSELVES OR WE KNOW 
 WHERE WE CAN FIND INFORMATION UPON IT.

                                    -- SAMUEL JOHNSON
 Job cpu time:       1 days  2 hours 13 minutes 24.6 seconds.
 Elapsed time:       0 days  0 hours 49 minutes 41.2 seconds.
 File lengths (MBytes):  RWF=   2997 Int=      0 D2E=      0 Chk=     34 Scr=      1
 Normal termination of Gaussian 16 at Sat Sep 17 04:15:29 2022.
