 Entering Gaussian System, Link 0=/shared/gaussian/g16.b01/AVX2/g16/g16
 Input=snap010.S0.com
 Output=snap010.S0.log
 Initial command:
 /shared/gaussian/g16.b01/AVX2/g16/l1.exe "/scratch/giacomo/Gauscr/Gau-18682.inp" -scrdir="/scratch/giacomo/Gauscr/"
 Entering Link 1 = /shared/gaussian/g16.b01/AVX2/g16/l1.exe PID=     18683.
  
 Copyright (c) 1988-2017, Gaussian, Inc.  All Rights Reserved.
  
 This is part of the Gaussian(R) 16 program.  It is based on
 the Gaussian(R) 09 system (copyright 2009, Gaussian, Inc.),
 the Gaussian(R) 03 system (copyright 2003, Gaussian, Inc.),
 the Gaussian(R) 98 system (copyright 1998, Gaussian, Inc.),
 the Gaussian(R) 94 system (copyright 1995, Gaussian, Inc.),
 the Gaussian 92(TM) system (copyright 1992, Gaussian, Inc.),
 the Gaussian 90(TM) system (copyright 1990, Gaussian, Inc.),
 the Gaussian 88(TM) system (copyright 1988, Gaussian, Inc.),
 the Gaussian 86(TM) system (copyright 1986, Carnegie Mellon
 University), and the Gaussian 82(TM) system (copyright 1983,
 Carnegie Mellon University). Gaussian is a federally registered
 trademark of Gaussian, Inc.
  
 This software contains proprietary and confidential information,
 including trade secrets, belonging to Gaussian, Inc.
  
 This software is provided under written license and may be
 used, copied, transmitted, or stored only in accord with that
 written license.
  
 The following legend is applicable only to US Government
 contracts under FAR:
  
                    RESTRICTED RIGHTS LEGEND
  
 Use, reproduction and disclosure by the US Government is
 subject to restrictions as set forth in subparagraphs (a)
 and (c) of the Commercial Computer Software - Restricted
 Rights clause in FAR 52.227-19.
  
 Gaussian, Inc.
 340 Quinnipiac St., Bldg. 40, Wallingford CT 06492
  
  
 ---------------------------------------------------------------
 Warning -- This program may not be used in any manner that
 competes with the business of Gaussian, Inc. or will provide
 assistance to any competitor of Gaussian, Inc.  The licensee
 of this program is prohibited from giving any competitor of
 Gaussian, Inc. access to this program.  By using this program,
 the user acknowledges that Gaussian, Inc. is engaged in the
 business of creating and licensing software in the field of
 computational chemistry and represents and warrants to the
 licensee that it is not a competitor of Gaussian, Inc. and that
 it will not use this program in any manner prohibited above.
 ---------------------------------------------------------------
  

 Cite this work as:
 Gaussian 16, Revision B.01,
 M. J. Frisch, G. W. Trucks, H. B. Schlegel, G. E. Scuseria, 
 M. A. Robb, J. R. Cheeseman, G. Scalmani, V. Barone, 
 G. A. Petersson, H. Nakatsuji, X. Li, M. Caricato, A. V. Marenich, 
 J. Bloino, B. G. Janesko, R. Gomperts, B. Mennucci, H. P. Hratchian, 
 J. V. Ortiz, A. F. Izmaylov, J. L. Sonnenberg, D. Williams-Young, 
 F. Ding, F. Lipparini, F. Egidi, J. Goings, B. Peng, A. Petrone, 
 T. Henderson, D. Ranasinghe, V. G. Zakrzewski, J. Gao, N. Rega, 
 G. Zheng, W. Liang, M. Hada, M. Ehara, K. Toyota, R. Fukuda, 
 J. Hasegawa, M. Ishida, T. Nakajima, Y. Honda, O. Kitao, H. Nakai, 
 T. Vreven, K. Throssell, J. A. Montgomery, Jr., J. E. Peralta, 
 F. Ogliaro, M. J. Bearpark, J. J. Heyd, E. N. Brothers, K. N. Kudin, 
 V. N. Staroverov, T. A. Keith, R. Kobayashi, J. Normand, 
 K. Raghavachari, A. P. Rendell, J. C. Burant, S. S. Iyengar, 
 J. Tomasi, M. Cossi, J. M. Millam, M. Klene, C. Adamo, R. Cammi, 
 J. W. Ochterski, R. L. Martin, K. Morokuma, O. Farkas, 
 J. B. Foresman, and D. J. Fox, Gaussian, Inc., Wallingford CT, 2016.
 
 ******************************************
 Gaussian 16:  ES64L-G16RevB.01 20-Dec-2017
                17-Sep-2022 
 ******************************************
 %Nproc=32
 Will use up to   32 processors via shared memory.
 %Mem=120Gb
 %chk=temp.chk
 -------------------------------------------
 #p cam-b3lyp/6-31+G(d,p) nosymm charge Freq
 -------------------------------------------
 1/10=4,18=10,28=-2,30=1,38=1,125=101/1,3;
 2/12=2,15=1,17=6,18=5,40=1/2;
 3/5=1,6=6,7=111,11=2,25=1,30=1,71=2,74=-40,140=1/1,2,3;
 4//1;
 5/5=2,38=5,98=1/2;
 8/6=4,10=90,11=11/1;
 11/6=1,8=1,9=11,15=111,16=1,31=1/1,2,10;
 10/6=1,31=1/2;
 6/7=2,8=2,9=2,10=2,28=1/1;
 7/8=1,10=1,16=-2,25=1,30=1/1,2,3,16;
 1/10=4,18=10,28=-2,30=1/3;
 99//99;
 Leave Link    1 at Sat Sep 17 04:15:29 2022, MaxMem= 16106127360 cpu:               1.9 elap:               0.1
 (Enter /shared/gaussian/g16.b01/AVX2/g16/l101.exe)
 ------------------------------------------
 Calculation for S0 with freq for abs spect
 ------------------------------------------
 Symbolic Z-matrix:
 Charge =  0 Multiplicity = 1
 C                     15.33869   16.61115   16.78041 
 C                     17.38339   15.7777   15.79773 
 C                     18.16183   16.57823   16.59468 
 C                     17.5257   17.5959   17.3574 
 N                     16.15558   17.51812   17.43383 
 H                     17.87871   15.07382   15.20765 
 H                     19.18525   16.54543   16.5088 
 O                     18.09951   18.38808   18.0864 
 O                     14.1088   16.55427   16.84825 
 N                     16.01844   15.683    16.0129 
 H                     15.47041   14.90596   15.62697 
 H                     15.69231   18.19837   17.98253 
 O                     20.94209   14.74127   14.97681 
 H                     21.35169   15.27132   15.66055 
 H                     21.67677   14.35216   14.50238 
 O                     13.98571   14.15521   14.26166 
 H                     13.98451   14.09324   13.30647 
 H                     13.7084   15.05298   14.44426 
 O                     15.63625   20.23018   15.12763 
 H                     14.74241   19.91162   15.25334 
 H                     15.92203   19.8261   14.30831 
 O                     18.2038   20.91075   15.64964 
 H                     17.38377   20.51828   15.35008 
 H                     18.85033   20.21003   15.56467 
 O                     18.849    20.48595   19.72073 
 H                     18.59382   20.21192   18.8398 
 H                     19.68033   20.94431   19.5981 
 O                     12.25173   16.46324   14.48823 
 H                     11.98094   16.55521   15.40171 
 H                     12.46045   17.35466   14.20889 
 O                     15.15824   21.21869   17.98107 
 H                     15.83907   21.85011   18.21346 
 H                     15.52534   20.73024   17.24426 
 O                     20.33955   17.6094   19.32025 
 H                     19.44014   17.8665   19.1173 
 H                     20.86479   18.00364   18.62388 
 O                     17.9174   13.66783   13.09767 
 H                     17.22038   13.30021   12.55429 
 H                     17.83162   14.61504   12.98962 
 O                     13.09488   16.11322   19.98127 
 H                     13.26986   16.24848   20.91257 
 H                     13.70697   16.69813   19.53465 
 O                     21.43195   18.94792   17.08916 
 H                     22.25247   18.64968   16.69669 
 H                     20.76166   18.72331   16.4438 
 O                     19.85173   18.89706   14.37329 
 H                     20.03939   19.38701   13.57269 
 H                     20.26745   18.04574   14.23667 
 O                     19.24427   13.65473   19.85149 
 H                     19.43796   14.5343   20.17567 
 H                     18.28836   13.60509   19.84871 
 O                     16.94416   18.56784   13.32106 
 H                     16.76228   17.91296   12.64705 
 H                     17.76766   18.28251   13.71688 
 O                     14.14583   18.48616   19.39386 
 H                     13.50949   19.00305   18.89977 
 H                     14.36217   19.03123   20.15038 
 
 ITRead=  0  0  0  0  0  0  0  0  0  0  0  0  0  0  0  0  0  0  0  0
 ITRead=  0  0  0  0  0  0  0  0  0  0  0  0  0  0  0  0  0  0  0  0
 ITRead=  0  0  0  0  0  0  0  0  0  0  0  0  0  0  0  0  0
 MicOpt= -1 -1 -1 -1 -1 -1 -1 -1 -1 -1 -1 -1 -1 -1 -1 -1 -1 -1 -1 -1
 MicOpt= -1 -1 -1 -1 -1 -1 -1 -1 -1 -1 -1 -1 -1 -1 -1 -1 -1 -1 -1 -1
 MicOpt= -1 -1 -1 -1 -1 -1 -1 -1 -1 -1 -1 -1 -1 -1 -1 -1 -1
 NAtoms=     57 NQM=       57 NQMF=       0 NMMI=      0 NMMIF=      0
                NMic=       0 NMicF=      0.
                    Isotopes and Nuclear Properties:
 (Nuclear quadrupole moments (NQMom) in fm**2, nuclear magnetic moments (NMagM)
  in nuclear magnetons)

  Atom         1           2           3           4           5           6           7           8           9          10
 IAtWgt=          12          12          12          12          14           1           1          16          16          14
 AtmWgt=  12.0000000  12.0000000  12.0000000  12.0000000  14.0030740   1.0078250   1.0078250  15.9949146  15.9949146  14.0030740
 NucSpn=           0           0           0           0           2           1           1           0           0           2
 AtZEff=  -0.0000000  -0.0000000  -0.0000000  -0.0000000  -0.0000000  -0.0000000  -0.0000000  -0.0000000  -0.0000000  -0.0000000
 NQMom=    0.0000000   0.0000000   0.0000000   0.0000000   2.0440000   0.0000000   0.0000000   0.0000000   0.0000000   2.0440000
 NMagM=    0.0000000   0.0000000   0.0000000   0.0000000   0.4037610   2.7928460   2.7928460   0.0000000   0.0000000   0.4037610
 AtZNuc=   6.0000000   6.0000000   6.0000000   6.0000000   7.0000000   1.0000000   1.0000000   8.0000000   8.0000000   7.0000000

  Atom        11          12          13          14          15          16          17          18          19          20
 IAtWgt=           1           1          16           1           1          16           1           1          16           1
 AtmWgt=   1.0078250   1.0078250  15.9949146   1.0078250   1.0078250  15.9949146   1.0078250   1.0078250  15.9949146   1.0078250
 NucSpn=           1           1           0           1           1           0           1           1           0           1
 AtZEff=  -0.0000000  -0.0000000  -0.0000000  -0.0000000  -0.0000000  -0.0000000  -0.0000000  -0.0000000  -0.0000000  -0.0000000
 NQMom=    0.0000000   0.0000000   0.0000000   0.0000000   0.0000000   0.0000000   0.0000000   0.0000000   0.0000000   0.0000000
 NMagM=    2.7928460   2.7928460   0.0000000   2.7928460   2.7928460   0.0000000   2.7928460   2.7928460   0.0000000   2.7928460
 AtZNuc=   1.0000000   1.0000000   8.0000000   1.0000000   1.0000000   8.0000000   1.0000000   1.0000000   8.0000000   1.0000000

  Atom        21          22          23          24          25          26          27          28          29          30
 IAtWgt=           1          16           1           1          16           1           1          16           1           1
 AtmWgt=   1.0078250  15.9949146   1.0078250   1.0078250  15.9949146   1.0078250   1.0078250  15.9949146   1.0078250   1.0078250
 NucSpn=           1           0           1           1           0           1           1           0           1           1
 AtZEff=  -0.0000000  -0.0000000  -0.0000000  -0.0000000  -0.0000000  -0.0000000  -0.0000000  -0.0000000  -0.0000000  -0.0000000
 NQMom=    0.0000000   0.0000000   0.0000000   0.0000000   0.0000000   0.0000000   0.0000000   0.0000000   0.0000000   0.0000000
 NMagM=    2.7928460   0.0000000   2.7928460   2.7928460   0.0000000   2.7928460   2.7928460   0.0000000   2.7928460   2.7928460
 AtZNuc=   1.0000000   8.0000000   1.0000000   1.0000000   8.0000000   1.0000000   1.0000000   8.0000000   1.0000000   1.0000000

  Atom        31          32          33          34          35          36          37          38          39          40
 IAtWgt=          16           1           1          16           1           1          16           1           1          16
 AtmWgt=  15.9949146   1.0078250   1.0078250  15.9949146   1.0078250   1.0078250  15.9949146   1.0078250   1.0078250  15.9949146
 NucSpn=           0           1           1           0           1           1           0           1           1           0
 AtZEff=  -0.0000000  -0.0000000  -0.0000000  -0.0000000  -0.0000000  -0.0000000  -0.0000000  -0.0000000  -0.0000000  -0.0000000
 NQMom=    0.0000000   0.0000000   0.0000000   0.0000000   0.0000000   0.0000000   0.0000000   0.0000000   0.0000000   0.0000000
 NMagM=    0.0000000   2.7928460   2.7928460   0.0000000   2.7928460   2.7928460   0.0000000   2.7928460   2.7928460   0.0000000
 AtZNuc=   8.0000000   1.0000000   1.0000000   8.0000000   1.0000000   1.0000000   8.0000000   1.0000000   1.0000000   8.0000000

  Atom        41          42          43          44          45          46          47          48          49          50
 IAtWgt=           1           1          16           1           1          16           1           1          16           1
 AtmWgt=   1.0078250   1.0078250  15.9949146   1.0078250   1.0078250  15.9949146   1.0078250   1.0078250  15.9949146   1.0078250
 NucSpn=           1           1           0           1           1           0           1           1           0           1
 AtZEff=  -0.0000000  -0.0000000  -0.0000000  -0.0000000  -0.0000000  -0.0000000  -0.0000000  -0.0000000  -0.0000000  -0.0000000
 NQMom=    0.0000000   0.0000000   0.0000000   0.0000000   0.0000000   0.0000000   0.0000000   0.0000000   0.0000000   0.0000000
 NMagM=    2.7928460   2.7928460   0.0000000   2.7928460   2.7928460   0.0000000   2.7928460   2.7928460   0.0000000   2.7928460
 AtZNuc=   1.0000000   1.0000000   8.0000000   1.0000000   1.0000000   8.0000000   1.0000000   1.0000000   8.0000000   1.0000000

  Atom        51          52          53          54          55          56          57
 IAtWgt=           1          16           1           1          16           1           1
 AtmWgt=   1.0078250  15.9949146   1.0078250   1.0078250  15.9949146   1.0078250   1.0078250
 NucSpn=           1           0           1           1           0           1           1
 AtZEff=  -0.0000000  -0.0000000  -0.0000000  -0.0000000  -0.0000000  -0.0000000  -0.0000000
 NQMom=    0.0000000   0.0000000   0.0000000   0.0000000   0.0000000   0.0000000   0.0000000
 NMagM=    2.7928460   0.0000000   2.7928460   2.7928460   0.0000000   2.7928460   2.7928460
 AtZNuc=   1.0000000   8.0000000   1.0000000   1.0000000   8.0000000   1.0000000   1.0000000
 Background charge distribution read from input stream:
 Point Charges:
 XYZ=    6.9359   19.0934   18.2743 Q=   -0.8340 A=    0.0000 R=    0.0000 C=    0.0000
 XYZ=    7.0774   18.1716   18.0589 Q=    0.4170 A=    0.0000 R=    0.0000 C=    0.0000
 XYZ=    7.8144   19.4730   18.2934 Q=    0.4170 A=    0.0000 R=    0.0000 C=    0.0000
 XYZ=    8.8314   13.7631   29.3831 Q=   -0.8340 A=    0.0000 R=    0.0000 C=    0.0000
 XYZ=    9.1226   13.5517   28.4961 Q=    0.4170 A=    0.0000 R=    0.0000 C=    0.0000
 XYZ=    8.8784   14.7180   29.4299 Q=    0.4170 A=    0.0000 R=    0.0000 C=    0.0000
 XYZ=    5.8968   22.1679   12.3866 Q=   -0.8340 A=    0.0000 R=    0.0000 C=    0.0000
 XYZ=    5.5050   22.3077   11.5245 Q=    0.4170 A=    0.0000 R=    0.0000 C=    0.0000
 XYZ=    6.1532   21.2457   12.3869 Q=    0.4170 A=    0.0000 R=    0.0000 C=    0.0000
 XYZ=   13.7107   29.1715   16.6113 Q=   -0.8340 A=    0.0000 R=    0.0000 C=    0.0000
 XYZ=   12.8814   29.1278   17.0874 Q=    0.4170 A=    0.0000 R=    0.0000 C=    0.0000
 XYZ=   13.7841   28.3208   16.1787 Q=    0.4170 A=    0.0000 R=    0.0000 C=    0.0000
 XYZ=   27.8498   10.2037   10.7926 Q=   -0.8340 A=    0.0000 R=    0.0000 C=    0.0000
 XYZ=   28.1634   11.0471   11.1189 Q=    0.4170 A=    0.0000 R=    0.0000 C=    0.0000
 XYZ=   27.2110   10.4303   10.1167 Q=    0.4170 A=    0.0000 R=    0.0000 C=    0.0000
 XYZ=   21.6599    6.6034   25.8035 Q=   -0.8340 A=    0.0000 R=    0.0000 C=    0.0000
 XYZ=   22.0735    6.0946   25.1061 Q=    0.4170 A=    0.0000 R=    0.0000 C=    0.0000
 XYZ=   21.1206    5.9692   26.2758 Q=    0.4170 A=    0.0000 R=    0.0000 C=    0.0000
 XYZ=   25.0260   10.5156    8.2881 Q=   -0.8340 A=    0.0000 R=    0.0000 C=    0.0000
 XYZ=   24.9033   11.4494    8.1173 Q=    0.4170 A=    0.0000 R=    0.0000 C=    0.0000
 XYZ=   24.1484   10.1408    8.2143 Q=    0.4170 A=    0.0000 R=    0.0000 C=    0.0000
 XYZ=    9.5134   22.9215   10.9124 Q=   -0.8340 A=    0.0000 R=    0.0000 C=    0.0000
 XYZ=    9.9115   23.5112   10.2720 Q=    0.4170 A=    0.0000 R=    0.0000 C=    0.0000
 XYZ=    9.7323   22.0439   10.5992 Q=    0.4170 A=    0.0000 R=    0.0000 C=    0.0000
 XYZ=   23.8267   22.9892   20.5665 Q=   -0.8340 A=    0.0000 R=    0.0000 C=    0.0000
 XYZ=   23.2548   23.4425   19.9470 Q=    0.4170 A=    0.0000 R=    0.0000 C=    0.0000
 XYZ=   23.4134   23.1261   21.4190 Q=    0.4170 A=    0.0000 R=    0.0000 C=    0.0000
 XYZ=   24.9415   19.0931    9.8043 Q=   -0.8340 A=    0.0000 R=    0.0000 C=    0.0000
 XYZ=   25.3492   18.8286    8.9796 Q=    0.4170 A=    0.0000 R=    0.0000 C=    0.0000
 XYZ=   25.1151   20.0322    9.8676 Q=    0.4170 A=    0.0000 R=    0.0000 C=    0.0000
 XYZ=    9.8198   13.6160   26.8596 Q=   -0.8340 A=    0.0000 R=    0.0000 C=    0.0000
 XYZ=   10.7642   13.7504   26.7802 Q=    0.4170 A=    0.0000 R=    0.0000 C=    0.0000
 XYZ=    9.4758   13.8081   25.9873 Q=    0.4170 A=    0.0000 R=    0.0000 C=    0.0000
 XYZ=    7.4465   19.1671   26.2574 Q=   -0.8340 A=    0.0000 R=    0.0000 C=    0.0000
 XYZ=    7.4080   18.2440   26.5077 Q=    0.4170 A=    0.0000 R=    0.0000 C=    0.0000
 XYZ=    7.7026   19.6227   27.0592 Q=    0.4170 A=    0.0000 R=    0.0000 C=    0.0000
 XYZ=    5.1717   11.0035    9.5631 Q=   -0.8340 A=    0.0000 R=    0.0000 C=    0.0000
 XYZ=    4.5658   11.3167    8.8915 Q=    0.4170 A=    0.0000 R=    0.0000 C=    0.0000
 XYZ=    5.4936   10.1679    9.2249 Q=    0.4170 A=    0.0000 R=    0.0000 C=    0.0000
 XYZ=   29.9524   19.1163   13.2325 Q=   -0.8340 A=    0.0000 R=    0.0000 C=    0.0000
 XYZ=   29.2766   19.4258   13.8356 Q=    0.4170 A=    0.0000 R=    0.0000 C=    0.0000
 XYZ=   30.3130   18.3371   13.6557 Q=    0.4170 A=    0.0000 R=    0.0000 C=    0.0000
 XYZ=   24.5732   21.5066   15.4723 Q=   -0.8340 A=    0.0000 R=    0.0000 C=    0.0000
 XYZ=   24.0175   21.5335   16.2513 Q=    0.4170 A=    0.0000 R=    0.0000 C=    0.0000
 XYZ=   25.1937   22.2250   15.5953 Q=    0.4170 A=    0.0000 R=    0.0000 C=    0.0000
 XYZ=    7.5961   17.3400    5.6692 Q=   -0.8340 A=    0.0000 R=    0.0000 C=    0.0000
 XYZ=    7.7912   16.4265    5.4604 Q=    0.4170 A=    0.0000 R=    0.0000 C=    0.0000
 XYZ=    6.6629   17.3435    5.8823 Q=    0.4170 A=    0.0000 R=    0.0000 C=    0.0000
 XYZ=   22.8736   10.7417   22.2394 Q=   -0.8340 A=    0.0000 R=    0.0000 C=    0.0000
 XYZ=   23.7292   10.3222   22.3300 Q=    0.4170 A=    0.0000 R=    0.0000 C=    0.0000
 XYZ=   22.4951   10.7070   23.1178 Q=    0.4170 A=    0.0000 R=    0.0000 C=    0.0000
 XYZ=   21.0678   22.9863   19.5199 Q=   -0.8340 A=    0.0000 R=    0.0000 C=    0.0000
 XYZ=   20.6211   23.3784   20.2702 Q=    0.4170 A=    0.0000 R=    0.0000 C=    0.0000
 XYZ=   21.3616   22.1317   19.8354 Q=    0.4170 A=    0.0000 R=    0.0000 C=    0.0000
 XYZ=   10.9710   17.3669   23.5025 Q=   -0.8340 A=    0.0000 R=    0.0000 C=    0.0000
 XYZ=   10.7014   17.2085   22.5978 Q=    0.4170 A=    0.0000 R=    0.0000 C=    0.0000
 XYZ=   11.6996   16.7627   23.6450 Q=    0.4170 A=    0.0000 R=    0.0000 C=    0.0000
 XYZ=   13.5259    9.7124   10.0361 Q=   -0.8340 A=    0.0000 R=    0.0000 C=    0.0000
 XYZ=   13.1474    9.8972    9.1766 Q=    0.4170 A=    0.0000 R=    0.0000 C=    0.0000
 XYZ=   14.2844    9.1589    9.8504 Q=    0.4170 A=    0.0000 R=    0.0000 C=    0.0000
 XYZ=   10.5882   17.0536   18.7123 Q=   -0.8340 A=    0.0000 R=    0.0000 C=    0.0000
 XYZ=   11.4864   16.7540   18.8525 Q=    0.4170 A=    0.0000 R=    0.0000 C=    0.0000
 XYZ=   10.5091   17.8375   19.2559 Q=    0.4170 A=    0.0000 R=    0.0000 C=    0.0000
 XYZ=   25.1170   16.7658   20.0286 Q=   -0.8340 A=    0.0000 R=    0.0000 C=    0.0000
 XYZ=   25.4875   16.7281   20.9103 Q=    0.4170 A=    0.0000 R=    0.0000 C=    0.0000
 XYZ=   24.8680   17.6827   19.9119 Q=    0.4170 A=    0.0000 R=    0.0000 C=    0.0000
 XYZ=   14.3831    8.7990   19.5133 Q=   -0.8340 A=    0.0000 R=    0.0000 C=    0.0000
 XYZ=   13.7067    8.8155   20.1904 Q=    0.4170 A=    0.0000 R=    0.0000 C=    0.0000
 XYZ=   13.9254    8.5098   18.7239 Q=    0.4170 A=    0.0000 R=    0.0000 C=    0.0000
 XYZ=   24.7010   24.4401   26.7978 Q=   -0.8340 A=    0.0000 R=    0.0000 C=    0.0000
 XYZ=   24.6713   24.2963   27.7437 Q=    0.4170 A=    0.0000 R=    0.0000 C=    0.0000
 XYZ=   25.3553   23.8175   26.4808 Q=    0.4170 A=    0.0000 R=    0.0000 C=    0.0000
 XYZ=   12.8136    8.5922   21.9590 Q=   -0.8340 A=    0.0000 R=    0.0000 C=    0.0000
 XYZ=   13.4623    8.0717   22.4327 Q=    0.4170 A=    0.0000 R=    0.0000 C=    0.0000
 XYZ=   12.1458    7.9598   21.6937 Q=    0.4170 A=    0.0000 R=    0.0000 C=    0.0000
 XYZ=   17.9316   25.2967    4.7833 Q=   -0.8340 A=    0.0000 R=    0.0000 C=    0.0000
 XYZ=   17.3875   24.5105    4.7381 Q=    0.4170 A=    0.0000 R=    0.0000 C=    0.0000
 XYZ=   17.3508   26.0067    4.5096 Q=    0.4170 A=    0.0000 R=    0.0000 C=    0.0000
 XYZ=   22.1200   20.6008   20.6020 Q=   -0.8340 A=    0.0000 R=    0.0000 C=    0.0000
 XYZ=   22.4220   19.8661   20.0677 Q=    0.4170 A=    0.0000 R=    0.0000 C=    0.0000
 XYZ=   22.9205   20.9744   20.9705 Q=    0.4170 A=    0.0000 R=    0.0000 C=    0.0000
 XYZ=   17.8168   25.2698   24.3646 Q=   -0.8340 A=    0.0000 R=    0.0000 C=    0.0000
 XYZ=   16.9222   25.1337   24.0525 Q=    0.4170 A=    0.0000 R=    0.0000 C=    0.0000
 XYZ=   18.0894   24.4131   24.6932 Q=    0.4170 A=    0.0000 R=    0.0000 C=    0.0000
 XYZ=   18.6588   26.6370   22.0119 Q=   -0.8340 A=    0.0000 R=    0.0000 C=    0.0000
 XYZ=   19.1867   27.4258   21.8881 Q=    0.4170 A=    0.0000 R=    0.0000 C=    0.0000
 XYZ=   18.5099   26.5936   22.9564 Q=    0.4170 A=    0.0000 R=    0.0000 C=    0.0000
 XYZ=   12.8403   12.0124    4.2373 Q=   -0.8340 A=    0.0000 R=    0.0000 C=    0.0000
 XYZ=   12.0928   12.3937    4.6979 Q=    0.4170 A=    0.0000 R=    0.0000 C=    0.0000
 XYZ=   13.4584   12.7371    4.1418 Q=    0.4170 A=    0.0000 R=    0.0000 C=    0.0000
 XYZ=   27.2728   24.9032   18.0739 Q=   -0.8340 A=    0.0000 R=    0.0000 C=    0.0000
 XYZ=   26.7298   24.2353   18.4927 Q=    0.4170 A=    0.0000 R=    0.0000 C=    0.0000
 XYZ=   28.0990   24.8782   18.5567 Q=    0.4170 A=    0.0000 R=    0.0000 C=    0.0000
 XYZ=   31.0548   19.7036   16.6714 Q=   -0.8340 A=    0.0000 R=    0.0000 C=    0.0000
 XYZ=   30.8041   19.1099   17.3791 Q=    0.4170 A=    0.0000 R=    0.0000 C=    0.0000
 XYZ=   31.5531   19.1564   16.0643 Q=    0.4170 A=    0.0000 R=    0.0000 C=    0.0000
 XYZ=   14.5665    3.3297   12.1044 Q=   -0.8340 A=    0.0000 R=    0.0000 C=    0.0000
 XYZ=   14.3602    3.1706   11.1834 Q=    0.4170 A=    0.0000 R=    0.0000 C=    0.0000
 XYZ=   15.1512    4.0875   12.0919 Q=    0.4170 A=    0.0000 R=    0.0000 C=    0.0000
 XYZ=    7.4168   13.0089   20.4770 Q=   -0.8340 A=    0.0000 R=    0.0000 C=    0.0000
 XYZ=    6.6251   13.1463   20.9972 Q=    0.4170 A=    0.0000 R=    0.0000 C=    0.0000
 XYZ=    7.8462   13.8642   20.4631 Q=    0.4170 A=    0.0000 R=    0.0000 C=    0.0000
 XYZ=   21.9573   21.8683   24.8818 Q=   -0.8340 A=    0.0000 R=    0.0000 C=    0.0000
 XYZ=   22.3637   21.6901   25.7298 Q=    0.4170 A=    0.0000 R=    0.0000 C=    0.0000
 XYZ=   21.2825   21.1952   24.7929 Q=    0.4170 A=    0.0000 R=    0.0000 C=    0.0000
 XYZ=   15.2392   16.4278    2.8877 Q=   -0.8340 A=    0.0000 R=    0.0000 C=    0.0000
 XYZ=   14.9203   17.2229    3.3148 Q=    0.4170 A=    0.0000 R=    0.0000 C=    0.0000
 XYZ=   15.8563   16.7415    2.2267 Q=    0.4170 A=    0.0000 R=    0.0000 C=    0.0000
 XYZ=   22.7717    5.1813   23.9000 Q=   -0.8340 A=    0.0000 R=    0.0000 C=    0.0000
 XYZ=   23.6736    5.1057   23.5885 Q=    0.4170 A=    0.0000 R=    0.0000 C=    0.0000
 XYZ=   22.2665    5.4090   23.1195 Q=    0.4170 A=    0.0000 R=    0.0000 C=    0.0000
 XYZ=   11.7037   17.7946   27.6498 Q=   -0.8340 A=    0.0000 R=    0.0000 C=    0.0000
 XYZ=   12.2466   18.3375   28.2214 Q=    0.4170 A=    0.0000 R=    0.0000 C=    0.0000
 XYZ=   10.8532   17.7611   28.0877 Q=    0.4170 A=    0.0000 R=    0.0000 C=    0.0000
 XYZ=   24.1722   17.3561   29.7697 Q=   -0.8340 A=    0.0000 R=    0.0000 C=    0.0000
 XYZ=   24.2116   16.4249   29.9878 Q=    0.4170 A=    0.0000 R=    0.0000 C=    0.0000
 XYZ=   24.9384   17.5055   29.2158 Q=    0.4170 A=    0.0000 R=    0.0000 C=    0.0000
 XYZ=   29.3140    8.3869   17.1379 Q=   -0.8340 A=    0.0000 R=    0.0000 C=    0.0000
 XYZ=   29.5204    9.1761   17.6386 Q=    0.4170 A=    0.0000 R=    0.0000 C=    0.0000
 XYZ=   28.5364    8.0280   17.5654 Q=    0.4170 A=    0.0000 R=    0.0000 C=    0.0000
 XYZ=    4.2512   25.8894   16.7596 Q=   -0.8340 A=    0.0000 R=    0.0000 C=    0.0000
 XYZ=    4.8492   25.4565   16.1502 Q=    0.4170 A=    0.0000 R=    0.0000 C=    0.0000
 XYZ=    4.4875   26.8157   16.7105 Q=    0.4170 A=    0.0000 R=    0.0000 C=    0.0000
 XYZ=    5.6134   18.6001   14.7797 Q=   -0.8340 A=    0.0000 R=    0.0000 C=    0.0000
 XYZ=    4.7395   18.5143   15.1609 Q=    0.4170 A=    0.0000 R=    0.0000 C=    0.0000
 XYZ=    5.4756   19.0967   13.9731 Q=    0.4170 A=    0.0000 R=    0.0000 C=    0.0000
 XYZ=    8.5690   21.7066    7.4995 Q=   -0.8340 A=    0.0000 R=    0.0000 C=    0.0000
 XYZ=    7.9771   21.2601    6.8941 Q=    0.4170 A=    0.0000 R=    0.0000 C=    0.0000
 XYZ=    9.2325   22.1052    6.9363 Q=    0.4170 A=    0.0000 R=    0.0000 C=    0.0000
 XYZ=   17.2769   21.6112   11.7925 Q=   -0.8340 A=    0.0000 R=    0.0000 C=    0.0000
 XYZ=   17.9957   21.9726   11.2739 Q=    0.4170 A=    0.0000 R=    0.0000 C=    0.0000
 XYZ=   17.6929   20.9624   12.3601 Q=    0.4170 A=    0.0000 R=    0.0000 C=    0.0000
 XYZ=    5.6363   15.2480   14.4496 Q=   -0.8340 A=    0.0000 R=    0.0000 C=    0.0000
 XYZ=    4.8958   14.7069   14.1753 Q=    0.4170 A=    0.0000 R=    0.0000 C=    0.0000
 XYZ=    5.4240   15.5088   15.3457 Q=    0.4170 A=    0.0000 R=    0.0000 C=    0.0000
 XYZ=   15.1825   24.7599   20.6559 Q=   -0.8340 A=    0.0000 R=    0.0000 C=    0.0000
 XYZ=   15.8647   24.1640   20.3466 Q=    0.4170 A=    0.0000 R=    0.0000 C=    0.0000
 XYZ=   14.4698   24.1848   20.9345 Q=    0.4170 A=    0.0000 R=    0.0000 C=    0.0000
 XYZ=    9.2865   20.4881   17.8246 Q=   -0.8340 A=    0.0000 R=    0.0000 C=    0.0000
 XYZ=    9.9942   20.8475   18.3596 Q=    0.4170 A=    0.0000 R=    0.0000 C=    0.0000
 XYZ=    9.5610   20.6517   16.9223 Q=    0.4170 A=    0.0000 R=    0.0000 C=    0.0000
 XYZ=   13.6772   24.0731   27.9856 Q=   -0.8340 A=    0.0000 R=    0.0000 C=    0.0000
 XYZ=   12.9596   24.6524   28.2419 Q=    0.4170 A=    0.0000 R=    0.0000 C=    0.0000
 XYZ=   14.3448   24.2058   28.6586 Q=    0.4170 A=    0.0000 R=    0.0000 C=    0.0000
 XYZ=   11.6423    6.9741   25.6603 Q=   -0.8340 A=    0.0000 R=    0.0000 C=    0.0000
 XYZ=   11.0268    7.0396   24.9301 Q=    0.4170 A=    0.0000 R=    0.0000 C=    0.0000
 XYZ=   12.0208    7.8502   25.7344 Q=    0.4170 A=    0.0000 R=    0.0000 C=    0.0000
 XYZ=   23.0846   24.0819    7.9280 Q=   -0.8340 A=    0.0000 R=    0.0000 C=    0.0000
 XYZ=   22.2083   23.9863    8.3010 Q=    0.4170 A=    0.0000 R=    0.0000 C=    0.0000
 XYZ=   23.6398   23.5250    8.4737 Q=    0.4170 A=    0.0000 R=    0.0000 C=    0.0000
 XYZ=    1.5591   17.6119   13.5565 Q=   -0.8340 A=    0.0000 R=    0.0000 C=    0.0000
 XYZ=    2.2876   18.2292   13.4900 Q=    0.4170 A=    0.0000 R=    0.0000 C=    0.0000
 XYZ=    0.9003   17.9521   12.9511 Q=    0.4170 A=    0.0000 R=    0.0000 C=    0.0000
 XYZ=    9.9712    6.8695    8.0720 Q=   -0.8340 A=    0.0000 R=    0.0000 C=    0.0000
 XYZ=    9.9945    5.9850    8.4372 Q=    0.4170 A=    0.0000 R=    0.0000 C=    0.0000
 XYZ=   10.8900    7.1334    8.0235 Q=    0.4170 A=    0.0000 R=    0.0000 C=    0.0000
 XYZ=   18.0603    6.4474   21.5134 Q=   -0.8340 A=    0.0000 R=    0.0000 C=    0.0000
 XYZ=   18.5943    6.6553   22.2801 Q=    0.4170 A=    0.0000 R=    0.0000 C=    0.0000
 XYZ=   17.5129    7.2221   21.3850 Q=    0.4170 A=    0.0000 R=    0.0000 C=    0.0000
 XYZ=   29.5026   17.7731   21.0000 Q=   -0.8340 A=    0.0000 R=    0.0000 C=    0.0000
 XYZ=   28.9189   17.9434   21.7393 Q=    0.4170 A=    0.0000 R=    0.0000 C=    0.0000
 XYZ=   29.3604   18.5109   20.4070 Q=    0.4170 A=    0.0000 R=    0.0000 C=    0.0000
 XYZ=   10.4648   27.1331   20.5605 Q=   -0.8340 A=    0.0000 R=    0.0000 C=    0.0000
 XYZ=    9.7341   27.1270   19.9422 Q=    0.4170 A=    0.0000 R=    0.0000 C=    0.0000
 XYZ=   11.2251   26.8819   20.0361 Q=    0.4170 A=    0.0000 R=    0.0000 C=    0.0000
 XYZ=    8.9961   24.4778    7.6414 Q=   -0.8340 A=    0.0000 R=    0.0000 C=    0.0000
 XYZ=    8.7811   25.1690    8.2678 Q=    0.4170 A=    0.0000 R=    0.0000 C=    0.0000
 XYZ=    8.3363   23.8015    7.7945 Q=    0.4170 A=    0.0000 R=    0.0000 C=    0.0000
 XYZ=   13.5477   17.8939    4.5764 Q=   -0.8340 A=    0.0000 R=    0.0000 C=    0.0000
 XYZ=   12.6057   18.0608    4.5435 Q=    0.4170 A=    0.0000 R=    0.0000 C=    0.0000
 XYZ=   13.6337   17.1103    5.1194 Q=    0.4170 A=    0.0000 R=    0.0000 C=    0.0000
 XYZ=   22.6707   18.0143    5.8453 Q=   -0.8340 A=    0.0000 R=    0.0000 C=    0.0000
 XYZ=   22.1219   17.7841    5.0956 Q=    0.4170 A=    0.0000 R=    0.0000 C=    0.0000
 XYZ=   23.5666   17.9583    5.5131 Q=    0.4170 A=    0.0000 R=    0.0000 C=    0.0000
 XYZ=   19.5720   27.2556   16.7921 Q=   -0.8340 A=    0.0000 R=    0.0000 C=    0.0000
 XYZ=   19.8485   26.4424   17.2144 Q=    0.4170 A=    0.0000 R=    0.0000 C=    0.0000
 XYZ=   18.7029   27.4302   17.1533 Q=    0.4170 A=    0.0000 R=    0.0000 C=    0.0000
 XYZ=   21.5172    9.8130   19.9373 Q=   -0.8340 A=    0.0000 R=    0.0000 C=    0.0000
 XYZ=   21.7819   10.3841   20.6584 Q=    0.4170 A=    0.0000 R=    0.0000 C=    0.0000
 XYZ=   21.6840    8.9271   20.2592 Q=    0.4170 A=    0.0000 R=    0.0000 C=    0.0000
 XYZ=   24.0998   15.5565   13.6098 Q=   -0.8340 A=    0.0000 R=    0.0000 C=    0.0000
 XYZ=   24.3808   14.9246   12.9480 Q=    0.4170 A=    0.0000 R=    0.0000 C=    0.0000
 XYZ=   24.8872   16.0639   13.8067 Q=    0.4170 A=    0.0000 R=    0.0000 C=    0.0000
 XYZ=   25.3792   17.6890    4.8376 Q=   -0.8340 A=    0.0000 R=    0.0000 C=    0.0000
 XYZ=   24.9879   17.1978    4.1152 Q=    0.4170 A=    0.0000 R=    0.0000 C=    0.0000
 XYZ=   25.9166   17.0467    5.3013 Q=    0.4170 A=    0.0000 R=    0.0000 C=    0.0000
 XYZ=    8.7884    6.5384   18.4152 Q=   -0.8340 A=    0.0000 R=    0.0000 C=    0.0000
 XYZ=    8.8106    6.8262   17.5026 Q=    0.4170 A=    0.0000 R=    0.0000 C=    0.0000
 XYZ=    8.1745    5.8040   18.4204 Q=    0.4170 A=    0.0000 R=    0.0000 C=    0.0000
 XYZ=   18.1004   24.8237   14.8710 Q=   -0.8340 A=    0.0000 R=    0.0000 C=    0.0000
 XYZ=   18.5692   24.2042   14.3117 Q=    0.4170 A=    0.0000 R=    0.0000 C=    0.0000
 XYZ=   18.7526   25.4886   15.0920 Q=    0.4170 A=    0.0000 R=    0.0000 C=    0.0000
 XYZ=   30.8205   16.1397   15.3840 Q=   -0.8340 A=    0.0000 R=    0.0000 C=    0.0000
 XYZ=   30.7413   15.8408   16.2899 Q=    0.4170 A=    0.0000 R=    0.0000 C=    0.0000
 XYZ=   30.8510   15.3344   14.8674 Q=    0.4170 A=    0.0000 R=    0.0000 C=    0.0000
 XYZ=   23.4367   26.5262   22.8891 Q=   -0.8340 A=    0.0000 R=    0.0000 C=    0.0000
 XYZ=   23.2806   26.4487   21.9479 Q=    0.4170 A=    0.0000 R=    0.0000 C=    0.0000
 XYZ=   22.5915   26.3233   23.2900 Q=    0.4170 A=    0.0000 R=    0.0000 C=    0.0000
 XYZ=   16.8183   26.7770   19.8345 Q=   -0.8340 A=    0.0000 R=    0.0000 C=    0.0000
 XYZ=   16.0439   26.2534   20.0401 Q=    0.4170 A=    0.0000 R=    0.0000 C=    0.0000
 XYZ=   17.4270   26.5968   20.5510 Q=    0.4170 A=    0.0000 R=    0.0000 C=    0.0000
 XYZ=   25.1367   10.2314   19.6256 Q=   -0.8340 A=    0.0000 R=    0.0000 C=    0.0000
 XYZ=   25.1030    9.3998   20.0984 Q=    0.4170 A=    0.0000 R=    0.0000 C=    0.0000
 XYZ=   25.4265   10.8677   20.2794 Q=    0.4170 A=    0.0000 R=    0.0000 C=    0.0000
 XYZ=   16.0965   16.5463   30.0120 Q=   -0.8340 A=    0.0000 R=    0.0000 C=    0.0000
 XYZ=   16.1895   16.2802   29.0972 Q=    0.4170 A=    0.0000 R=    0.0000 C=    0.0000
 XYZ=   16.4374   17.4403   30.0377 Q=    0.4170 A=    0.0000 R=    0.0000 C=    0.0000
 XYZ=    8.4883   22.3536   13.3047 Q=   -0.8340 A=    0.0000 R=    0.0000 C=    0.0000
 XYZ=    8.8933   22.4214   12.4400 Q=    0.4170 A=    0.0000 R=    0.0000 C=    0.0000
 XYZ=    7.5476   22.3374   13.1284 Q=    0.4170 A=    0.0000 R=    0.0000 C=    0.0000
 XYZ=   19.6254   17.8293   28.7546 Q=   -0.8340 A=    0.0000 R=    0.0000 C=    0.0000
 XYZ=   20.0993   17.0045   28.6481 Q=    0.4170 A=    0.0000 R=    0.0000 C=    0.0000
 XYZ=   18.7041   17.5730   28.7972 Q=    0.4170 A=    0.0000 R=    0.0000 C=    0.0000
 XYZ=    3.6022   10.5534   19.5500 Q=   -0.8340 A=    0.0000 R=    0.0000 C=    0.0000
 XYZ=    3.1563   10.1066   20.2696 Q=    0.4170 A=    0.0000 R=    0.0000 C=    0.0000
 XYZ=    4.5133   10.2679   19.6182 Q=    0.4170 A=    0.0000 R=    0.0000 C=    0.0000
 XYZ=   30.8636   13.7198   14.3478 Q=   -0.8340 A=    0.0000 R=    0.0000 C=    0.0000
 XYZ=   31.2567   13.0137   14.8609 Q=    0.4170 A=    0.0000 R=    0.0000 C=    0.0000
 XYZ=   30.0927   13.3219   13.9433 Q=    0.4170 A=    0.0000 R=    0.0000 C=    0.0000
 XYZ=   11.9285   21.7991   28.6810 Q=   -0.8340 A=    0.0000 R=    0.0000 C=    0.0000
 XYZ=   11.3075   21.2782   28.1718 Q=    0.4170 A=    0.0000 R=    0.0000 C=    0.0000
 XYZ=   12.6910   21.8896   28.1095 Q=    0.4170 A=    0.0000 R=    0.0000 C=    0.0000
 XYZ=   17.1178   15.9279   23.2573 Q=   -0.8340 A=    0.0000 R=    0.0000 C=    0.0000
 XYZ=   17.5849   15.7355   24.0704 Q=    0.4170 A=    0.0000 R=    0.0000 C=    0.0000
 XYZ=   16.6696   15.1108   23.0390 Q=    0.4170 A=    0.0000 R=    0.0000 C=    0.0000
 XYZ=    7.4462   10.4249   21.6906 Q=   -0.8340 A=    0.0000 R=    0.0000 C=    0.0000
 XYZ=    7.3719   11.3140   21.3441 Q=    0.4170 A=    0.0000 R=    0.0000 C=    0.0000
 XYZ=    8.2328   10.0707   21.2759 Q=    0.4170 A=    0.0000 R=    0.0000 C=    0.0000
 XYZ=   14.0412   14.2826    3.9240 Q=   -0.8340 A=    0.0000 R=    0.0000 C=    0.0000
 XYZ=   13.1519   14.5000    3.6443 Q=    0.4170 A=    0.0000 R=    0.0000 C=    0.0000
 XYZ=   14.5833   14.9875    3.5697 Q=    0.4170 A=    0.0000 R=    0.0000 C=    0.0000
 XYZ=   10.5357   14.1689   21.9092 Q=   -0.8340 A=    0.0000 R=    0.0000 C=    0.0000
 XYZ=    9.7313   14.6739   22.0282 Q=    0.4170 A=    0.0000 R=    0.0000 C=    0.0000
 XYZ=   10.8611   14.4350   21.0492 Q=    0.4170 A=    0.0000 R=    0.0000 C=    0.0000
 XYZ=   25.5305   24.9607    6.8012 Q=   -0.8340 A=    0.0000 R=    0.0000 C=    0.0000
 XYZ=   24.6480   24.6808    7.0442 Q=    0.4170 A=    0.0000 R=    0.0000 C=    0.0000
 XYZ=   25.7537   24.4199    6.0436 Q=    0.4170 A=    0.0000 R=    0.0000 C=    0.0000
 XYZ=   12.1834   23.2729   24.8129 Q=   -0.8340 A=    0.0000 R=    0.0000 C=    0.0000
 XYZ=   11.3488   22.8427   24.9992 Q=    0.4170 A=    0.0000 R=    0.0000 C=    0.0000
 XYZ=   12.1181   24.1224   25.2492 Q=    0.4170 A=    0.0000 R=    0.0000 C=    0.0000
 XYZ=   16.4724   11.8985    8.0448 Q=   -0.8340 A=    0.0000 R=    0.0000 C=    0.0000
 XYZ=   16.3584   10.9568    8.1731 Q=    0.4170 A=    0.0000 R=    0.0000 C=    0.0000
 XYZ=   15.8214   12.1311    7.3828 Q=    0.4170 A=    0.0000 R=    0.0000 C=    0.0000
 XYZ=   19.5506   29.5444   21.7363 Q=   -0.8340 A=    0.0000 R=    0.0000 C=    0.0000
 XYZ=   19.2251   29.6785   22.6264 Q=    0.4170 A=    0.0000 R=    0.0000 C=    0.0000
 XYZ=   20.4990   29.6516   21.8088 Q=    0.4170 A=    0.0000 R=    0.0000 C=    0.0000
 XYZ=   16.9513   19.4561   29.9094 Q=   -0.8340 A=    0.0000 R=    0.0000 C=    0.0000
 XYZ=   16.9968   19.6439   30.8468 Q=    0.4170 A=    0.0000 R=    0.0000 C=    0.0000
 XYZ=   17.4910   20.1337   29.5023 Q=    0.4170 A=    0.0000 R=    0.0000 C=    0.0000
 XYZ=   22.4128   29.5234   11.5958 Q=   -0.8340 A=    0.0000 R=    0.0000 C=    0.0000
 XYZ=   22.3123   30.4752   11.5832 Q=    0.4170 A=    0.0000 R=    0.0000 C=    0.0000
 XYZ=   23.1933   29.3575   11.0669 Q=    0.4170 A=    0.0000 R=    0.0000 C=    0.0000
 XYZ=   12.6219    6.2971    8.8794 Q=   -0.8340 A=    0.0000 R=    0.0000 C=    0.0000
 XYZ=   13.3079    5.6298    8.8954 Q=    0.4170 A=    0.0000 R=    0.0000 C=    0.0000
 XYZ=   12.9652    6.9806    8.3040 Q=    0.4170 A=    0.0000 R=    0.0000 C=    0.0000
 XYZ=   26.2823   17.4904   11.7954 Q=   -0.8340 A=    0.0000 R=    0.0000 C=    0.0000
 XYZ=   26.4567   18.3073   12.2628 Q=    0.4170 A=    0.0000 R=    0.0000 C=    0.0000
 XYZ=   25.6501   17.7316   11.1184 Q=    0.4170 A=    0.0000 R=    0.0000 C=    0.0000
 XYZ=    1.7959   17.3942   18.9687 Q=   -0.8340 A=    0.0000 R=    0.0000 C=    0.0000
 XYZ=    2.2354   17.0620   18.1859 Q=    0.4170 A=    0.0000 R=    0.0000 C=    0.0000
 XYZ=    2.1298   18.2853   19.0715 Q=    0.4170 A=    0.0000 R=    0.0000 C=    0.0000
 XYZ=    7.2896   12.5188   14.6610 Q=   -0.8340 A=    0.0000 R=    0.0000 C=    0.0000
 XYZ=    6.9324   13.1609   15.2744 Q=    0.4170 A=    0.0000 R=    0.0000 C=    0.0000
 XYZ=    7.5561   13.0357   13.9007 Q=    0.4170 A=    0.0000 R=    0.0000 C=    0.0000
 XYZ=   13.6168   22.1074    4.4257 Q=   -0.8340 A=    0.0000 R=    0.0000 C=    0.0000
 XYZ=   12.6872   22.1809    4.6419 Q=    0.4170 A=    0.0000 R=    0.0000 C=    0.0000
 XYZ=   13.6318   21.6578    3.5808 Q=    0.4170 A=    0.0000 R=    0.0000 C=    0.0000
 XYZ=   26.5132   13.1071   25.2736 Q=   -0.8340 A=    0.0000 R=    0.0000 C=    0.0000
 XYZ=   26.6814   13.4323   24.3892 Q=    0.4170 A=    0.0000 R=    0.0000 C=    0.0000
 XYZ=   25.8597   12.4177   25.1556 Q=    0.4170 A=    0.0000 R=    0.0000 C=    0.0000
 XYZ=   21.4671    9.9599   10.2754 Q=   -0.8340 A=    0.0000 R=    0.0000 C=    0.0000
 XYZ=   22.0065   10.2951    9.5592 Q=    0.4170 A=    0.0000 R=    0.0000 C=    0.0000
 XYZ=   20.6716   10.4913   10.2457 Q=    0.4170 A=    0.0000 R=    0.0000 C=    0.0000
 XYZ=   21.3775    6.1791   21.6929 Q=   -0.8340 A=    0.0000 R=    0.0000 C=    0.0000
 XYZ=   21.5175    5.4850   21.0488 Q=    0.4170 A=    0.0000 R=    0.0000 C=    0.0000
 XYZ=   20.8648    6.8393   21.2265 Q=    0.4170 A=    0.0000 R=    0.0000 C=    0.0000
 XYZ=   22.0502   26.7459    7.0708 Q=   -0.8340 A=    0.0000 R=    0.0000 C=    0.0000
 XYZ=   22.8271   26.5984    7.6103 Q=    0.4170 A=    0.0000 R=    0.0000 C=    0.0000
 XYZ=   21.5247   25.9541    7.1852 Q=    0.4170 A=    0.0000 R=    0.0000 C=    0.0000
 XYZ=   13.0869   23.3783   21.6487 Q=   -0.8340 A=    0.0000 R=    0.0000 C=    0.0000
 XYZ=   12.9220   22.4586   21.8567 Q=    0.4170 A=    0.0000 R=    0.0000 C=    0.0000
 XYZ=   12.8160   23.8542   22.4337 Q=    0.4170 A=    0.0000 R=    0.0000 C=    0.0000
 XYZ=   22.5164    6.7678   18.5752 Q=   -0.8340 A=    0.0000 R=    0.0000 C=    0.0000
 XYZ=   21.7766    6.3095   18.9738 Q=    0.4170 A=    0.0000 R=    0.0000 C=    0.0000
 XYZ=   22.1416    7.2129   17.8151 Q=    0.4170 A=    0.0000 R=    0.0000 C=    0.0000
 XYZ=   23.8159   15.5491    7.0608 Q=   -0.8340 A=    0.0000 R=    0.0000 C=    0.0000
 XYZ=   23.7667   15.2448    7.9670 Q=    0.4170 A=    0.0000 R=    0.0000 C=    0.0000
 XYZ=   23.1282   16.2114    6.9923 Q=    0.4170 A=    0.0000 R=    0.0000 C=    0.0000
 XYZ=   17.7469   14.4886    8.3682 Q=   -0.8340 A=    0.0000 R=    0.0000 C=    0.0000
 XYZ=   17.0835   14.8201    8.9734 Q=    0.4170 A=    0.0000 R=    0.0000 C=    0.0000
 XYZ=   17.4955   13.5784    8.2115 Q=    0.4170 A=    0.0000 R=    0.0000 C=    0.0000
 XYZ=   23.1355   14.1738    9.5556 Q=   -0.8340 A=    0.0000 R=    0.0000 C=    0.0000
 XYZ=   22.6917   14.7071   10.2150 Q=    0.4170 A=    0.0000 R=    0.0000 C=    0.0000
 XYZ=   23.4306   13.3984   10.0330 Q=    0.4170 A=    0.0000 R=    0.0000 C=    0.0000
 XYZ=   16.6091    3.4707   17.3451 Q=   -0.8340 A=    0.0000 R=    0.0000 C=    0.0000
 XYZ=   16.2052    2.9255   16.6699 Q=    0.4170 A=    0.0000 R=    0.0000 C=    0.0000
 XYZ=   17.4855    3.6589   17.0091 Q=    0.4170 A=    0.0000 R=    0.0000 C=    0.0000
 XYZ=   18.9498    6.0658   13.2877 Q=   -0.8340 A=    0.0000 R=    0.0000 C=    0.0000
 XYZ=   18.4641    6.3115   14.0750 Q=    0.4170 A=    0.0000 R=    0.0000 C=    0.0000
 XYZ=   19.5881    6.7694   13.1701 Q=    0.4170 A=    0.0000 R=    0.0000 C=    0.0000
 XYZ=    8.0464   16.0309   18.3252 Q=   -0.8340 A=    0.0000 R=    0.0000 C=    0.0000
 XYZ=    7.8346   16.0755   17.3928 Q=    0.4170 A=    0.0000 R=    0.0000 C=    0.0000
 XYZ=    8.9631   16.3018   18.3762 Q=    0.4170 A=    0.0000 R=    0.0000 C=    0.0000
 XYZ=   10.1699    9.0015   28.0636 Q=   -0.8340 A=    0.0000 R=    0.0000 C=    0.0000
 XYZ=   11.0568    9.3610   28.0414 Q=    0.4170 A=    0.0000 R=    0.0000 C=    0.0000
 XYZ=    9.6808    9.5301   27.4331 Q=    0.4170 A=    0.0000 R=    0.0000 C=    0.0000
 XYZ=   26.7932   20.8865   17.4538 Q=   -0.8340 A=    0.0000 R=    0.0000 C=    0.0000
 XYZ=   26.4196   21.5910   17.9833 Q=    0.4170 A=    0.0000 R=    0.0000 C=    0.0000
 XYZ=   27.2261   20.3140   18.0871 Q=    0.4170 A=    0.0000 R=    0.0000 C=    0.0000
 XYZ=   22.6545   14.4395    4.4880 Q=   -0.8340 A=    0.0000 R=    0.0000 C=    0.0000
 XYZ=   22.1415   13.7266    4.8685 Q=    0.4170 A=    0.0000 R=    0.0000 C=    0.0000
 XYZ=   23.3967   14.5453    5.0832 Q=    0.4170 A=    0.0000 R=    0.0000 C=    0.0000
 XYZ=    6.2311   23.7064   15.2610 Q=   -0.8340 A=    0.0000 R=    0.0000 C=    0.0000
 XYZ=    6.7022   22.9803   15.6697 Q=    0.4170 A=    0.0000 R=    0.0000 C=    0.0000
 XYZ=    5.7745   23.3091   14.5194 Q=    0.4170 A=    0.0000 R=    0.0000 C=    0.0000
 XYZ=   21.8919    7.6644    6.8481 Q=   -0.8340 A=    0.0000 R=    0.0000 C=    0.0000
 XYZ=   21.7928    7.5423    5.9039 Q=    0.4170 A=    0.0000 R=    0.0000 C=    0.0000
 XYZ=   22.1723    8.5745    6.9443 Q=    0.4170 A=    0.0000 R=    0.0000 C=    0.0000
 XYZ=   21.6073   21.9404   27.7242 Q=   -0.8340 A=    0.0000 R=    0.0000 C=    0.0000
 XYZ=   21.4310   21.1239   28.1916 Q=    0.4170 A=    0.0000 R=    0.0000 C=    0.0000
 XYZ=   22.1422   22.4531   28.3302 Q=    0.4170 A=    0.0000 R=    0.0000 C=    0.0000
 XYZ=   29.3065    8.1446   14.2841 Q=   -0.8340 A=    0.0000 R=    0.0000 C=    0.0000
 XYZ=   29.4396    7.7393   15.1410 Q=    0.4170 A=    0.0000 R=    0.0000 C=    0.0000
 XYZ=   29.1368    9.0664   14.4783 Q=    0.4170 A=    0.0000 R=    0.0000 C=    0.0000
 XYZ=   18.2446   20.9759    4.9388 Q=   -0.8340 A=    0.0000 R=    0.0000 C=    0.0000
 XYZ=   17.8057   21.3748    5.6901 Q=    0.4170 A=    0.0000 R=    0.0000 C=    0.0000
 XYZ=   19.1088   21.3870    4.9196 Q=    0.4170 A=    0.0000 R=    0.0000 C=    0.0000
 XYZ=   14.1527   19.5950   11.6077 Q=   -0.8340 A=    0.0000 R=    0.0000 C=    0.0000
 XYZ=   14.9711   19.9373   11.9674 Q=    0.4170 A=    0.0000 R=    0.0000 C=    0.0000
 XYZ=   13.6405   19.3416   12.3755 Q=    0.4170 A=    0.0000 R=    0.0000 C=    0.0000
 XYZ=    3.6195   19.5756   18.7021 Q=   -0.8340 A=    0.0000 R=    0.0000 C=    0.0000
 XYZ=    4.2966   19.5595   18.0258 Q=    0.4170 A=    0.0000 R=    0.0000 C=    0.0000
 XYZ=    4.0863   19.8124   19.5035 Q=    0.4170 A=    0.0000 R=    0.0000 C=    0.0000
 XYZ=   25.3629    7.1490   18.2568 Q=   -0.8340 A=    0.0000 R=    0.0000 C=    0.0000
 XYZ=   24.7581    6.8392   18.9310 Q=    0.4170 A=    0.0000 R=    0.0000 C=    0.0000
 XYZ=   24.8672    7.8119   17.7761 Q=    0.4170 A=    0.0000 R=    0.0000 C=    0.0000
 XYZ=   20.0869    7.8109    9.0421 Q=   -0.8340 A=    0.0000 R=    0.0000 C=    0.0000
 XYZ=   20.7914    7.9064    8.4013 Q=    0.4170 A=    0.0000 R=    0.0000 C=    0.0000
 XYZ=   20.3011    8.4411    9.7300 Q=    0.4170 A=    0.0000 R=    0.0000 C=    0.0000
 XYZ=    4.2779   16.3877   25.9600 Q=   -0.8340 A=    0.0000 R=    0.0000 C=    0.0000
 XYZ=    4.4161   16.5382   25.0249 Q=    0.4170 A=    0.0000 R=    0.0000 C=    0.0000
 XYZ=    5.1580   16.3910   26.3363 Q=    0.4170 A=    0.0000 R=    0.0000 C=    0.0000
 XYZ=   19.2252   22.1469    9.8576 Q=   -0.8340 A=    0.0000 R=    0.0000 C=    0.0000
 XYZ=   19.3248   21.6105    9.0711 Q=    0.4170 A=    0.0000 R=    0.0000 C=    0.0000
 XYZ=   19.8631   22.8523    9.7493 Q=    0.4170 A=    0.0000 R=    0.0000 C=    0.0000
 XYZ=    6.2911   15.7163   20.3005 Q=   -0.8340 A=    0.0000 R=    0.0000 C=    0.0000
 XYZ=    5.5038   15.2606   20.0027 Q=    0.4170 A=    0.0000 R=    0.0000 C=    0.0000
 XYZ=    6.8306   15.8022   19.5145 Q=    0.4170 A=    0.0000 R=    0.0000 C=    0.0000
 XYZ=    5.1064   22.3463    9.5854 Q=   -0.8340 A=    0.0000 R=    0.0000 C=    0.0000
 XYZ=    4.1934   22.5653    9.7716 Q=    0.4170 A=    0.0000 R=    0.0000 C=    0.0000
 XYZ=    5.2830   22.7540    8.7376 Q=    0.4170 A=    0.0000 R=    0.0000 C=    0.0000
 XYZ=   12.6066    3.5166   16.2675 Q=   -0.8340 A=    0.0000 R=    0.0000 C=    0.0000
 XYZ=   12.7089    2.5804   16.0969 Q=    0.4170 A=    0.0000 R=    0.0000 C=    0.0000
 XYZ=   11.8955    3.7899   15.6879 Q=    0.4170 A=    0.0000 R=    0.0000 C=    0.0000
 XYZ=   19.3287   12.2334   30.3964 Q=   -0.8340 A=    0.0000 R=    0.0000 C=    0.0000
 XYZ=   19.4367   13.1027   30.0106 Q=    0.4170 A=    0.0000 R=    0.0000 C=    0.0000
 XYZ=   18.7921   12.3813   31.1751 Q=    0.4170 A=    0.0000 R=    0.0000 C=    0.0000
 XYZ=   19.9592    7.5344   19.6865 Q=   -0.8340 A=    0.0000 R=    0.0000 C=    0.0000
 XYZ=   19.7222    8.4583   19.6064 Q=    0.4170 A=    0.0000 R=    0.0000 C=    0.0000
 XYZ=   19.1316    7.0892   19.8687 Q=    0.4170 A=    0.0000 R=    0.0000 C=    0.0000
 XYZ=   26.7914    8.4742   13.1846 Q=   -0.8340 A=    0.0000 R=    0.0000 C=    0.0000
 XYZ=   27.6004    8.5308   13.6930 Q=    0.4170 A=    0.0000 R=    0.0000 C=    0.0000
 XYZ=   26.9025    9.1172   12.4843 Q=    0.4170 A=    0.0000 R=    0.0000 C=    0.0000
 XYZ=   28.3508   10.8328   14.1760 Q=   -0.8340 A=    0.0000 R=    0.0000 C=    0.0000
 XYZ=   28.5396   11.4429   13.4630 Q=    0.4170 A=    0.0000 R=    0.0000 C=    0.0000
 XYZ=   28.0711   11.3908   14.9016 Q=    0.4170 A=    0.0000 R=    0.0000 C=    0.0000
 XYZ=   16.8532   12.4925   10.7209 Q=   -0.8340 A=    0.0000 R=    0.0000 C=    0.0000
 XYZ=   16.6785   12.1070    9.8624 Q=    0.4170 A=    0.0000 R=    0.0000 C=    0.0000
 XYZ=   16.4894   13.3762   10.6657 Q=    0.4170 A=    0.0000 R=    0.0000 C=    0.0000
 XYZ=   28.2956   19.3484   10.5805 Q=   -0.8340 A=    0.0000 R=    0.0000 C=    0.0000
 XYZ=   28.9106   19.3226   11.3135 Q=    0.4170 A=    0.0000 R=    0.0000 C=    0.0000
 XYZ=   27.5555   19.8606   10.9061 Q=    0.4170 A=    0.0000 R=    0.0000 C=    0.0000
 XYZ=   27.9307   18.4170   24.7988 Q=   -0.8340 A=    0.0000 R=    0.0000 C=    0.0000
 XYZ=   28.4670   18.7189   25.5319 Q=    0.4170 A=    0.0000 R=    0.0000 C=    0.0000
 XYZ=   27.0292   18.5082   25.1074 Q=    0.4170 A=    0.0000 R=    0.0000 C=    0.0000
 XYZ=   14.2401    5.6998   15.2117 Q=   -0.8340 A=    0.0000 R=    0.0000 C=    0.0000
 XYZ=   15.0572    5.6098   14.7213 Q=    0.4170 A=    0.0000 R=    0.0000 C=    0.0000
 XYZ=   13.8473    4.8273   15.1856 Q=    0.4170 A=    0.0000 R=    0.0000 C=    0.0000
 XYZ=   13.0681    5.3298   23.0740 Q=   -0.8340 A=    0.0000 R=    0.0000 C=    0.0000
 XYZ=   13.5605    5.9083   23.6563 Q=    0.4170 A=    0.0000 R=    0.0000 C=    0.0000
 XYZ=   13.1519    4.4625   23.4703 Q=    0.4170 A=    0.0000 R=    0.0000 C=    0.0000
 XYZ=   16.4229   27.7513   17.1014 Q=   -0.8340 A=    0.0000 R=    0.0000 C=    0.0000
 XYZ=   16.6100   27.3856   17.9659 Q=    0.4170 A=    0.0000 R=    0.0000 C=    0.0000
 XYZ=   15.9681   28.5740   17.2821 Q=    0.4170 A=    0.0000 R=    0.0000 C=    0.0000
 XYZ=   11.0896   10.7865   14.5660 Q=   -0.8340 A=    0.0000 R=    0.0000 C=    0.0000
 XYZ=   11.9926   11.1035   14.5468 Q=    0.4170 A=    0.0000 R=    0.0000 C=    0.0000
 XYZ=   10.6733   11.2021   13.8109 Q=    0.4170 A=    0.0000 R=    0.0000 C=    0.0000
 XYZ=   22.9749   26.3800   20.3270 Q=   -0.8340 A=    0.0000 R=    0.0000 C=    0.0000
 XYZ=   22.5946   27.2062   20.0289 Q=    0.4170 A=    0.0000 R=    0.0000 C=    0.0000
 XYZ=   23.4567   26.0500   19.5686 Q=    0.4170 A=    0.0000 R=    0.0000 C=    0.0000
 XYZ=   31.1300   15.6549   20.1444 Q=   -0.8340 A=    0.0000 R=    0.0000 C=    0.0000
 XYZ=   31.9215   16.1932   20.1390 Q=    0.4170 A=    0.0000 R=    0.0000 C=    0.0000
 XYZ=   30.4112   16.2855   20.1892 Q=    0.4170 A=    0.0000 R=    0.0000 C=    0.0000
 XYZ=    8.6465   10.7318    8.3767 Q=   -0.8340 A=    0.0000 R=    0.0000 C=    0.0000
 XYZ=    8.1694   10.8926    7.5627 Q=    0.4170 A=    0.0000 R=    0.0000 C=    0.0000
 XYZ=    8.0455   10.2094    8.9079 Q=    0.4170 A=    0.0000 R=    0.0000 C=    0.0000
 XYZ=   17.7565   18.0657    5.6860 Q=   -0.8340 A=    0.0000 R=    0.0000 C=    0.0000
 XYZ=   18.4763   17.4533    5.5339 Q=    0.4170 A=    0.0000 R=    0.0000 C=    0.0000
 XYZ=   18.0369   18.8761    5.2607 Q=    0.4170 A=    0.0000 R=    0.0000 C=    0.0000
 XYZ=   21.1727   17.6055    3.4380 Q=   -0.8340 A=    0.0000 R=    0.0000 C=    0.0000
 XYZ=   20.6778   16.9597    2.9337 Q=    0.4170 A=    0.0000 R=    0.0000 C=    0.0000
 XYZ=   21.1646   18.3927    2.8935 Q=    0.4170 A=    0.0000 R=    0.0000 C=    0.0000
 XYZ=    6.2679    8.6365   23.4778 Q=   -0.8340 A=    0.0000 R=    0.0000 C=    0.0000
 XYZ=    6.6198    9.1783   22.7715 Q=    0.4170 A=    0.0000 R=    0.0000 C=    0.0000
 XYZ=    7.0035    8.5184   24.0788 Q=    0.4170 A=    0.0000 R=    0.0000 C=    0.0000
 XYZ=   13.4854   20.3692   25.1228 Q=   -0.8340 A=    0.0000 R=    0.0000 C=    0.0000
 XYZ=   12.7509   20.1069   24.5679 Q=    0.4170 A=    0.0000 R=    0.0000 C=    0.0000
 XYZ=   13.5997   21.3027   24.9443 Q=    0.4170 A=    0.0000 R=    0.0000 C=    0.0000
 XYZ=   26.8982   15.8610    5.9154 Q=   -0.8340 A=    0.0000 R=    0.0000 C=    0.0000
 XYZ=   27.6179   15.7355    6.5339 Q=    0.4170 A=    0.0000 R=    0.0000 C=    0.0000
 XYZ=   26.7629   14.9970    5.5262 Q=    0.4170 A=    0.0000 R=    0.0000 C=    0.0000
 XYZ=   22.5795   10.2564    7.5028 Q=   -0.8340 A=    0.0000 R=    0.0000 C=    0.0000
 XYZ=   23.0768   10.3507    6.6904 Q=    0.4170 A=    0.0000 R=    0.0000 C=    0.0000
 XYZ=   21.7113   10.6012    7.2941 Q=    0.4170 A=    0.0000 R=    0.0000 C=    0.0000
 XYZ=   27.1084   18.5130   22.3821 Q=   -0.8340 A=    0.0000 R=    0.0000 C=    0.0000
 XYZ=   26.1622   18.4198   22.4928 Q=    0.4170 A=    0.0000 R=    0.0000 C=    0.0000
 XYZ=   27.4417   18.6476   23.2693 Q=    0.4170 A=    0.0000 R=    0.0000 C=    0.0000
 XYZ=   16.8264   28.9986   12.0829 Q=   -0.8340 A=    0.0000 R=    0.0000 C=    0.0000
 XYZ=   16.6850   28.2269   12.6313 Q=    0.4170 A=    0.0000 R=    0.0000 C=    0.0000
 XYZ=   17.4146   29.5530   12.5957 Q=    0.4170 A=    0.0000 R=    0.0000 C=    0.0000
 XYZ=   14.6719   28.9758   20.5462 Q=   -0.8340 A=    0.0000 R=    0.0000 C=    0.0000
 XYZ=   14.9680   29.8656   20.3543 Q=    0.4170 A=    0.0000 R=    0.0000 C=    0.0000
 XYZ=   15.4789   28.4736   20.6595 Q=    0.4170 A=    0.0000 R=    0.0000 C=    0.0000
 XYZ=   15.9060   17.6882   10.6770 Q=   -0.8340 A=    0.0000 R=    0.0000 C=    0.0000
 XYZ=   15.2062   18.3342   10.7731 Q=    0.4170 A=    0.0000 R=    0.0000 C=    0.0000
 XYZ=   16.5071   18.0782   10.0424 Q=    0.4170 A=    0.0000 R=    0.0000 C=    0.0000
 XYZ=   24.3850   22.1536    9.6413 Q=   -0.8340 A=    0.0000 R=    0.0000 C=    0.0000
 XYZ=   24.1723   22.5574   10.4827 Q=    0.4170 A=    0.0000 R=    0.0000 C=    0.0000
 XYZ=   25.3075   22.3659    9.4996 Q=    0.4170 A=    0.0000 R=    0.0000 C=    0.0000
 XYZ=   17.9270   19.4749   25.7496 Q=   -0.8340 A=    0.0000 R=    0.0000 C=    0.0000
 XYZ=   17.4733   19.2040   24.9515 Q=    0.4170 A=    0.0000 R=    0.0000 C=    0.0000
 XYZ=   18.8470   19.2688   25.5844 Q=    0.4170 A=    0.0000 R=    0.0000 C=    0.0000
 XYZ=   12.3907   26.4085   10.8650 Q=   -0.8340 A=    0.0000 R=    0.0000 C=    0.0000
 XYZ=   11.8810   27.2174   10.9120 Q=    0.4170 A=    0.0000 R=    0.0000 C=    0.0000
 XYZ=   13.1079   26.5404   11.4850 Q=    0.4170 A=    0.0000 R=    0.0000 C=    0.0000
 XYZ=   11.3265   14.3906    8.8997 Q=   -0.8340 A=    0.0000 R=    0.0000 C=    0.0000
 XYZ=   11.4874   14.5130    7.9641 Q=    0.4170 A=    0.0000 R=    0.0000 C=    0.0000
 XYZ=   10.9608   13.5086    8.9670 Q=    0.4170 A=    0.0000 R=    0.0000 C=    0.0000
 XYZ=   26.1272   26.2314   21.9222 Q=   -0.8340 A=    0.0000 R=    0.0000 C=    0.0000
 XYZ=   25.4221   25.7609   22.3667 Q=    0.4170 A=    0.0000 R=    0.0000 C=    0.0000
 XYZ=   25.8088   26.3514   21.0275 Q=    0.4170 A=    0.0000 R=    0.0000 C=    0.0000
 XYZ=   28.7892   23.8095   14.2032 Q=   -0.8340 A=    0.0000 R=    0.0000 C=    0.0000
 XYZ=   29.4855   24.4634   14.1414 Q=    0.4170 A=    0.0000 R=    0.0000 C=    0.0000
 XYZ=   29.0627   23.2346   14.9180 Q=    0.4170 A=    0.0000 R=    0.0000 C=    0.0000
 XYZ=   18.6032   15.4910   25.7681 Q=   -0.8340 A=    0.0000 R=    0.0000 C=    0.0000
 XYZ=   19.1408   14.9145   26.3111 Q=    0.4170 A=    0.0000 R=    0.0000 C=    0.0000
 XYZ=   18.0197   15.9290   26.3879 Q=    0.4170 A=    0.0000 R=    0.0000 C=    0.0000
 XYZ=   13.1676   13.9680   11.2203 Q=   -0.8340 A=    0.0000 R=    0.0000 C=    0.0000
 XYZ=   13.1006   13.0382   11.4373 Q=    0.4170 A=    0.0000 R=    0.0000 C=    0.0000
 XYZ=   12.3995   14.1435   10.6767 Q=    0.4170 A=    0.0000 R=    0.0000 C=    0.0000
 XYZ=   16.8852   10.3720   25.7188 Q=   -0.8340 A=    0.0000 R=    0.0000 C=    0.0000
 XYZ=   17.1672   10.3103   24.8061 Q=    0.4170 A=    0.0000 R=    0.0000 C=    0.0000
 XYZ=   17.1210    9.5265   26.1005 Q=    0.4170 A=    0.0000 R=    0.0000 C=    0.0000
 XYZ=   19.7808   12.1056   14.3641 Q=   -0.8340 A=    0.0000 R=    0.0000 C=    0.0000
 XYZ=   20.2427   12.8712   14.7058 Q=    0.4170 A=    0.0000 R=    0.0000 C=    0.0000
 XYZ=   19.0972   12.4691   13.8012 Q=    0.4170 A=    0.0000 R=    0.0000 C=    0.0000
 XYZ=   10.0724   13.1224   12.9387 Q=   -0.8340 A=    0.0000 R=    0.0000 C=    0.0000
 XYZ=    9.9473   13.8026   12.2770 Q=    0.4170 A=    0.0000 R=    0.0000 C=    0.0000
 XYZ=    9.9427   13.5727   13.7733 Q=    0.4170 A=    0.0000 R=    0.0000 C=    0.0000
 XYZ=   17.0939   14.0687   31.4233 Q=   -0.8340 A=    0.0000 R=    0.0000 C=    0.0000
 XYZ=   16.7153   14.7941   30.9267 Q=    0.4170 A=    0.0000 R=    0.0000 C=    0.0000
 XYZ=   16.3422   13.5323   31.6754 Q=    0.4170 A=    0.0000 R=    0.0000 C=    0.0000
 XYZ=   30.4347   14.7123   17.7664 Q=   -0.8340 A=    0.0000 R=    0.0000 C=    0.0000
 XYZ=   30.6331   15.0832   18.6262 Q=    0.4170 A=    0.0000 R=    0.0000 C=    0.0000
 XYZ=   31.0591   13.9939   17.6650 Q=    0.4170 A=    0.0000 R=    0.0000 C=    0.0000
 XYZ=   18.1872   31.6428   20.1582 Q=   -0.8340 A=    0.0000 R=    0.0000 C=    0.0000
 XYZ=   18.6338   30.8713   20.5069 Q=    0.4170 A=    0.0000 R=    0.0000 C=    0.0000
 XYZ=   18.2472   32.2920   20.8591 Q=    0.4170 A=    0.0000 R=    0.0000 C=    0.0000
 XYZ=   16.7530    8.7832    8.0954 Q=   -0.8340 A=    0.0000 R=    0.0000 C=    0.0000
 XYZ=   17.6457    8.4395    8.0634 Q=    0.4170 A=    0.0000 R=    0.0000 C=    0.0000
 XYZ=   16.4368    8.5491    8.9680 Q=    0.4170 A=    0.0000 R=    0.0000 C=    0.0000
 XYZ=    2.3092   16.4066   16.5825 Q=   -0.8340 A=    0.0000 R=    0.0000 C=    0.0000
 XYZ=    2.1034   16.7518   15.7137 Q=    0.4170 A=    0.0000 R=    0.0000 C=    0.0000
 XYZ=    1.9000   15.5415   16.6002 Q=    0.4170 A=    0.0000 R=    0.0000 C=    0.0000
 XYZ=    6.7252   21.1241   16.0852 Q=   -0.8340 A=    0.0000 R=    0.0000 C=    0.0000
 XYZ=    7.6502   20.8817   16.1279 Q=    0.4170 A=    0.0000 R=    0.0000 C=    0.0000
 XYZ=    6.2553   20.2959   16.1823 Q=    0.4170 A=    0.0000 R=    0.0000 C=    0.0000
 XYZ=   15.6181   13.6648   23.6969 Q=   -0.8340 A=    0.0000 R=    0.0000 C=    0.0000
 XYZ=   15.1056   12.9013   23.4312 Q=    0.4170 A=    0.0000 R=    0.0000 C=    0.0000
 XYZ=   15.9330   13.4489   24.5746 Q=    0.4170 A=    0.0000 R=    0.0000 C=    0.0000
 XYZ=    7.3643    9.9093   14.7311 Q=   -0.8340 A=    0.0000 R=    0.0000 C=    0.0000
 XYZ=    7.3565   10.8575   14.8615 Q=    0.4170 A=    0.0000 R=    0.0000 C=    0.0000
 XYZ=    7.5541    9.5494   15.5976 Q=    0.4170 A=    0.0000 R=    0.0000 C=    0.0000
 XYZ=   16.3928    6.0819   25.8761 Q=   -0.8340 A=    0.0000 R=    0.0000 C=    0.0000
 XYZ=   16.6291    5.3315   25.3309 Q=    0.4170 A=    0.0000 R=    0.0000 C=    0.0000
 XYZ=   15.5462    5.8460   26.2554 Q=    0.4170 A=    0.0000 R=    0.0000 C=    0.0000
 XYZ=   24.4717   19.6912   19.4991 Q=   -0.8340 A=    0.0000 R=    0.0000 C=    0.0000
 XYZ=   24.6376   19.3332   18.6270 Q=    0.4170 A=    0.0000 R=    0.0000 C=    0.0000
 XYZ=   24.5777   20.6367   19.3945 Q=    0.4170 A=    0.0000 R=    0.0000 C=    0.0000
 XYZ=   19.3026   17.2588   31.7713 Q=   -0.8340 A=    0.0000 R=    0.0000 C=    0.0000
 XYZ=   19.0216   17.0670   30.8766 Q=    0.4170 A=    0.0000 R=    0.0000 C=    0.0000
 XYZ=   20.2344   17.4631   31.6916 Q=    0.4170 A=    0.0000 R=    0.0000 C=    0.0000
 XYZ=    4.8906   15.4303   17.1085 Q=   -0.8340 A=    0.0000 R=    0.0000 C=    0.0000
 XYZ=    4.5005   14.8480   17.7604 Q=    0.4170 A=    0.0000 R=    0.0000 C=    0.0000
 XYZ=    4.2508   16.1343   17.0021 Q=    0.4170 A=    0.0000 R=    0.0000 C=    0.0000
 XYZ=   23.9250   24.9666   17.9770 Q=   -0.8340 A=    0.0000 R=    0.0000 C=    0.0000
 XYZ=   23.8207   25.7968   17.5121 Q=    0.4170 A=    0.0000 R=    0.0000 C=    0.0000
 XYZ=   24.7600   24.6192   17.6635 Q=    0.4170 A=    0.0000 R=    0.0000 C=    0.0000
 XYZ=    9.2154   24.4576   22.4303 Q=   -0.8340 A=    0.0000 R=    0.0000 C=    0.0000
 XYZ=    9.2169   24.7542   21.5202 Q=    0.4170 A=    0.0000 R=    0.0000 C=    0.0000
 XYZ=    8.3062   24.5556   22.7131 Q=    0.4170 A=    0.0000 R=    0.0000 C=    0.0000
 XYZ=   18.9597   19.1800   22.0717 Q=   -0.8340 A=    0.0000 R=    0.0000 C=    0.0000
 XYZ=   19.1759   18.3665   21.6161 Q=    0.4170 A=    0.0000 R=    0.0000 C=    0.0000
 XYZ=   19.0313   19.8579   21.3997 Q=    0.4170 A=    0.0000 R=    0.0000 C=    0.0000
 XYZ=   15.4127   23.6483   12.5993 Q=   -0.8340 A=    0.0000 R=    0.0000 C=    0.0000
 XYZ=   14.6358   23.1089   12.4518 Q=    0.4170 A=    0.0000 R=    0.0000 C=    0.0000
 XYZ=   16.1481   23.0464   12.4845 Q=    0.4170 A=    0.0000 R=    0.0000 C=    0.0000
 XYZ=   30.0973   10.6818   18.6332 Q=   -0.8340 A=    0.0000 R=    0.0000 C=    0.0000
 XYZ=   29.5354   11.4323   18.8261 Q=    0.4170 A=    0.0000 R=    0.0000 C=    0.0000
 XYZ=   29.9978   10.1063   19.3915 Q=    0.4170 A=    0.0000 R=    0.0000 C=    0.0000
 XYZ=    9.0496   21.2251   21.1242 Q=   -0.8340 A=    0.0000 R=    0.0000 C=    0.0000
 XYZ=    8.1849   21.2662   20.7157 Q=    0.4170 A=    0.0000 R=    0.0000 C=    0.0000
 XYZ=    9.4524   22.0688   20.9186 Q=    0.4170 A=    0.0000 R=    0.0000 C=    0.0000
 XYZ=   15.0544   31.5078   17.2372 Q=   -0.8340 A=    0.0000 R=    0.0000 C=    0.0000
 XYZ=   14.5453   30.7288   17.0131 Q=    0.4170 A=    0.0000 R=    0.0000 C=    0.0000
 XYZ=   15.1283   31.9911   16.4143 Q=    0.4170 A=    0.0000 R=    0.0000 C=    0.0000
 XYZ=   25.1124   21.0481    6.0440 Q=   -0.8340 A=    0.0000 R=    0.0000 C=    0.0000
 XYZ=   24.7760   20.2075    6.3546 Q=    0.4170 A=    0.0000 R=    0.0000 C=    0.0000
 XYZ=   25.8685   21.2255    6.6036 Q=    0.4170 A=    0.0000 R=    0.0000 C=    0.0000
 XYZ=   14.0068   11.5070   22.0846 Q=   -0.8340 A=    0.0000 R=    0.0000 C=    0.0000
 XYZ=   13.4007   10.7668   22.0537 Q=    0.4170 A=    0.0000 R=    0.0000 C=    0.0000
 XYZ=   13.8530   11.9774   21.2653 Q=    0.4170 A=    0.0000 R=    0.0000 C=    0.0000
 XYZ=   26.1185   21.5498   25.0424 Q=   -0.8340 A=    0.0000 R=    0.0000 C=    0.0000
 XYZ=   25.7800   20.8682   25.6230 Q=    0.4170 A=    0.0000 R=    0.0000 C=    0.0000
 XYZ=   25.3897   21.7476   24.4542 Q=    0.4170 A=    0.0000 R=    0.0000 C=    0.0000
 XYZ=   25.1132   13.8283   11.6210 Q=   -0.8340 A=    0.0000 R=    0.0000 C=    0.0000
 XYZ=   25.8783   13.5560   11.1144 Q=    0.4170 A=    0.0000 R=    0.0000 C=    0.0000
 XYZ=   24.7938   13.0216   12.0254 Q=    0.4170 A=    0.0000 R=    0.0000 C=    0.0000
 XYZ=   27.2419   21.6000    8.4438 Q=   -0.8340 A=    0.0000 R=    0.0000 C=    0.0000
 XYZ=   27.6295   20.8009    8.0869 Q=    0.4170 A=    0.0000 R=    0.0000 C=    0.0000
 XYZ=   27.2880   21.4858    9.3931 Q=    0.4170 A=    0.0000 R=    0.0000 C=    0.0000
 XYZ=   14.7087    7.6660   24.1081 Q=   -0.8340 A=    0.0000 R=    0.0000 C=    0.0000
 XYZ=   15.4596    7.1924   24.4660 Q=    0.4170 A=    0.0000 R=    0.0000 C=    0.0000
 XYZ=   14.7401    8.5227   24.5339 Q=    0.4170 A=    0.0000 R=    0.0000 C=    0.0000
 XYZ=    9.5902   12.2289   17.0136 Q=   -0.8340 A=    0.0000 R=    0.0000 C=    0.0000
 XYZ=   10.0975   11.5397   16.5846 Q=    0.4170 A=    0.0000 R=    0.0000 C=    0.0000
 XYZ=    9.6741   12.9853   16.4330 Q=    0.4170 A=    0.0000 R=    0.0000 C=    0.0000
 XYZ=   19.3690   27.7656    6.9669 Q=   -0.8340 A=    0.0000 R=    0.0000 C=    0.0000
 XYZ=   19.8300   26.9479    6.7796 Q=    0.4170 A=    0.0000 R=    0.0000 C=    0.0000
 XYZ=   18.4865   27.4917    7.2167 Q=    0.4170 A=    0.0000 R=    0.0000 C=    0.0000
 XYZ=   22.7355   16.0440   16.6633 Q=   -0.8340 A=    0.0000 R=    0.0000 C=    0.0000
 XYZ=   22.8846   15.6875   17.5390 Q=    0.4170 A=    0.0000 R=    0.0000 C=    0.0000
 XYZ=   23.4286   16.6938   16.5474 Q=    0.4170 A=    0.0000 R=    0.0000 C=    0.0000
 XYZ=   18.9791   13.1241   27.3789 Q=   -0.8340 A=    0.0000 R=    0.0000 C=    0.0000
 XYZ=   18.2444   12.7079   27.8296 Q=    0.4170 A=    0.0000 R=    0.0000 C=    0.0000
 XYZ=   19.4132   12.4079   26.9154 Q=    0.4170 A=    0.0000 R=    0.0000 C=    0.0000
 XYZ=   22.5598   28.6046   14.1381 Q=   -0.8340 A=    0.0000 R=    0.0000 C=    0.0000
 XYZ=   22.8545   29.0613   13.3503 Q=    0.4170 A=    0.0000 R=    0.0000 C=    0.0000
 XYZ=   22.4773   29.2932   14.7980 Q=    0.4170 A=    0.0000 R=    0.0000 C=    0.0000
 XYZ=   23.6536    4.0450   15.9543 Q=   -0.8340 A=    0.0000 R=    0.0000 C=    0.0000
 XYZ=   24.5376    4.1434   15.6006 Q=    0.4170 A=    0.0000 R=    0.0000 C=    0.0000
 XYZ=   23.1808    4.8141   15.6361 Q=    0.4170 A=    0.0000 R=    0.0000 C=    0.0000
 XYZ=    6.7802   24.7367   11.4545 Q=   -0.8340 A=    0.0000 R=    0.0000 C=    0.0000
 XYZ=    6.6731   23.7906   11.5531 Q=    0.4170 A=    0.0000 R=    0.0000 C=    0.0000
 XYZ=    5.8969   25.0904   11.5588 Q=    0.4170 A=    0.0000 R=    0.0000 C=    0.0000
 XYZ=   13.5457   16.1013   23.0989 Q=   -0.8340 A=    0.0000 R=    0.0000 C=    0.0000
 XYZ=   14.1997   15.4811   23.4212 Q=    0.4170 A=    0.0000 R=    0.0000 C=    0.0000
 XYZ=   13.5453   16.8073   23.7452 Q=    0.4170 A=    0.0000 R=    0.0000 C=    0.0000
 XYZ=    8.4840   24.6241   19.8421 Q=   -0.8340 A=    0.0000 R=    0.0000 C=    0.0000
 XYZ=    9.3133   24.5206   19.3754 Q=    0.4170 A=    0.0000 R=    0.0000 C=    0.0000
 XYZ=    7.8580   24.1051   19.3372 Q=    0.4170 A=    0.0000 R=    0.0000 C=    0.0000
 XYZ=   24.6101   13.3026   16.9874 Q=   -0.8340 A=    0.0000 R=    0.0000 C=    0.0000
 XYZ=   23.9830   13.6250   17.6348 Q=    0.4170 A=    0.0000 R=    0.0000 C=    0.0000
 XYZ=   24.9310   12.4785   17.3537 Q=    0.4170 A=    0.0000 R=    0.0000 C=    0.0000
 XYZ=    3.8145   11.4651   12.1420 Q=   -0.8340 A=    0.0000 R=    0.0000 C=    0.0000
 XYZ=    4.3027   11.1781   11.3703 Q=    0.4170 A=    0.0000 R=    0.0000 C=    0.0000
 XYZ=    4.1528   10.9237   12.8551 Q=    0.4170 A=    0.0000 R=    0.0000 C=    0.0000
 XYZ=   19.7810   26.5077   27.4708 Q=   -0.8340 A=    0.0000 R=    0.0000 C=    0.0000
 XYZ=   19.9981   25.6866   27.0292 Q=    0.4170 A=    0.0000 R=    0.0000 C=    0.0000
 XYZ=   18.8554   26.6493   27.2726 Q=    0.4170 A=    0.0000 R=    0.0000 C=    0.0000
 XYZ=   20.1387   26.5368   14.3066 Q=   -0.8340 A=    0.0000 R=    0.0000 C=    0.0000
 XYZ=   20.2167   26.9099   15.1846 Q=    0.4170 A=    0.0000 R=    0.0000 C=    0.0000
 XYZ=   20.6822   27.1012   13.7568 Q=    0.4170 A=    0.0000 R=    0.0000 C=    0.0000
 XYZ=   10.2156   24.0437   28.2753 Q=   -0.8340 A=    0.0000 R=    0.0000 C=    0.0000
 XYZ=    9.4477   23.7922   27.7622 Q=    0.4170 A=    0.0000 R=    0.0000 C=    0.0000
 XYZ=   10.5864   23.2136   28.5748 Q=    0.4170 A=    0.0000 R=    0.0000 C=    0.0000
 XYZ=   26.8276   16.4376   17.9714 Q=   -0.8340 A=    0.0000 R=    0.0000 C=    0.0000
 XYZ=   26.1689   16.5450   18.6575 Q=    0.4170 A=    0.0000 R=    0.0000 C=    0.0000
 XYZ=   26.3429   16.0807   17.2271 Q=    0.4170 A=    0.0000 R=    0.0000 C=    0.0000
 XYZ=   24.6145   11.0560   24.8881 Q=   -0.8340 A=    0.0000 R=    0.0000 C=    0.0000
 XYZ=   23.9126   10.6152   25.3669 Q=    0.4170 A=    0.0000 R=    0.0000 C=    0.0000
 XYZ=   25.3475   10.4411   24.9167 Q=    0.4170 A=    0.0000 R=    0.0000 C=    0.0000
 XYZ=   20.2266   14.9859   22.4454 Q=   -0.8340 A=    0.0000 R=    0.0000 C=    0.0000
 XYZ=   19.8366   14.1813   22.7871 Q=    0.4170 A=    0.0000 R=    0.0000 C=    0.0000
 XYZ=   19.5056   15.6152   22.4318 Q=    0.4170 A=    0.0000 R=    0.0000 C=    0.0000
 XYZ=   26.2283   27.0909   15.0520 Q=   -0.8340 A=    0.0000 R=    0.0000 C=    0.0000
 XYZ=   25.5688   26.4556   14.7733 Q=    0.4170 A=    0.0000 R=    0.0000 C=    0.0000
 XYZ=   25.7549   27.6910   15.6282 Q=    0.4170 A=    0.0000 R=    0.0000 C=    0.0000
 XYZ=   17.1823    7.1930   15.1587 Q=   -0.8340 A=    0.0000 R=    0.0000 C=    0.0000
 XYZ=   17.1549    6.7675   16.0157 Q=    0.4170 A=    0.0000 R=    0.0000 C=    0.0000
 XYZ=   16.8422    8.0736   15.3171 Q=    0.4170 A=    0.0000 R=    0.0000 C=    0.0000
 XYZ=    9.0894    7.1086   23.1439 Q=   -0.8340 A=    0.0000 R=    0.0000 C=    0.0000
 XYZ=    9.4069    7.2680   22.2550 Q=    0.4170 A=    0.0000 R=    0.0000 C=    0.0000
 XYZ=    9.3324    7.8963   23.6303 Q=    0.4170 A=    0.0000 R=    0.0000 C=    0.0000
 XYZ=   23.8089   23.2884    5.1551 Q=   -0.8340 A=    0.0000 R=    0.0000 C=    0.0000
 XYZ=   24.2422   22.4352    5.1324 Q=    0.4170 A=    0.0000 R=    0.0000 C=    0.0000
 XYZ=   23.2933   23.2743    5.9614 Q=    0.4170 A=    0.0000 R=    0.0000 C=    0.0000
 XYZ=   21.4656   10.0032   14.1828 Q=   -0.8340 A=    0.0000 R=    0.0000 C=    0.0000
 XYZ=   22.2526   10.3243   14.6230 Q=    0.4170 A=    0.0000 R=    0.0000 C=    0.0000
 XYZ=   20.7768   10.6128   14.4477 Q=    0.4170 A=    0.0000 R=    0.0000 C=    0.0000
 XYZ=    3.9285   13.7066   19.1876 Q=   -0.8340 A=    0.0000 R=    0.0000 C=    0.0000
 XYZ=    3.1732   13.5885   19.7636 Q=    0.4170 A=    0.0000 R=    0.0000 C=    0.0000
 XYZ=    4.5068   12.9732   19.3968 Q=    0.4170 A=    0.0000 R=    0.0000 C=    0.0000
 XYZ=   14.7222   15.8424   32.2100 Q=   -0.8340 A=    0.0000 R=    0.0000 C=    0.0000
 XYZ=   15.0212   16.2356   31.3901 Q=    0.4170 A=    0.0000 R=    0.0000 C=    0.0000
 XYZ=   14.7598   16.5565   32.8463 Q=    0.4170 A=    0.0000 R=    0.0000 C=    0.0000
 XYZ=   21.2021   22.7651    6.3109 Q=   -0.8340 A=    0.0000 R=    0.0000 C=    0.0000
 XYZ=   20.7539   23.5916    6.4904 Q=    0.4170 A=    0.0000 R=    0.0000 C=    0.0000
 XYZ=   21.4638   22.8286    5.3924 Q=    0.4170 A=    0.0000 R=    0.0000 C=    0.0000
 XYZ=    9.8269    9.2530   24.6367 Q=   -0.8340 A=    0.0000 R=    0.0000 C=    0.0000
 XYZ=    9.7945    9.8473   25.3863 Q=    0.4170 A=    0.0000 R=    0.0000 C=    0.0000
 XYZ=   10.1857    9.7834   23.9252 Q=    0.4170 A=    0.0000 R=    0.0000 C=    0.0000
 XYZ=   12.6670    6.1697   20.0928 Q=   -0.8340 A=    0.0000 R=    0.0000 C=    0.0000
 XYZ=   13.0263    5.4496   19.5745 Q=    0.4170 A=    0.0000 R=    0.0000 C=    0.0000
 XYZ=   12.7133    5.8606   20.9975 Q=    0.4170 A=    0.0000 R=    0.0000 C=    0.0000
 XYZ=   10.4823   12.0291   10.0929 Q=   -0.8340 A=    0.0000 R=    0.0000 C=    0.0000
 XYZ=    9.6709   11.6272    9.7824 Q=    0.4170 A=    0.0000 R=    0.0000 C=    0.0000
 XYZ=   10.5237   11.7996   11.0213 Q=    0.4170 A=    0.0000 R=    0.0000 C=    0.0000
 XYZ=   14.8808    4.6449    8.1551 Q=   -0.8340 A=    0.0000 R=    0.0000 C=    0.0000
 XYZ=   15.5929    4.4562    8.7663 Q=    0.4170 A=    0.0000 R=    0.0000 C=    0.0000
 XYZ=   15.1831    5.4081    7.6627 Q=    0.4170 A=    0.0000 R=    0.0000 C=    0.0000
 XYZ=    8.6789   25.0852   15.5628 Q=   -0.8340 A=    0.0000 R=    0.0000 C=    0.0000
 XYZ=    7.8210   24.6620   15.5300 Q=    0.4170 A=    0.0000 R=    0.0000 C=    0.0000
 XYZ=    8.8467   25.3577   14.6607 Q=    0.4170 A=    0.0000 R=    0.0000 C=    0.0000
 XYZ=   12.2475   30.7641   14.4965 Q=   -0.8340 A=    0.0000 R=    0.0000 C=    0.0000
 XYZ=   12.5641   29.8643   14.5759 Q=    0.4170 A=    0.0000 R=    0.0000 C=    0.0000
 XYZ=   12.8353   31.1699   13.8592 Q=    0.4170 A=    0.0000 R=    0.0000 C=    0.0000
 XYZ=   21.0716    9.8565   17.1109 Q=   -0.8340 A=    0.0000 R=    0.0000 C=    0.0000
 XYZ=   20.5844   10.6647   16.9508 Q=    0.4170 A=    0.0000 R=    0.0000 C=    0.0000
 XYZ=   21.0415    9.7422   18.0607 Q=    0.4170 A=    0.0000 R=    0.0000 C=    0.0000
 XYZ=   13.3894   19.6796    7.3270 Q=   -0.8340 A=    0.0000 R=    0.0000 C=    0.0000
 XYZ=   13.1942   19.7223    6.3909 Q=    0.4170 A=    0.0000 R=    0.0000 C=    0.0000
 XYZ=   14.2354   19.2343    7.3757 Q=    0.4170 A=    0.0000 R=    0.0000 C=    0.0000
 XYZ=    8.7252   13.7226   24.3911 Q=   -0.8340 A=    0.0000 R=    0.0000 C=    0.0000
 XYZ=    9.3828   13.2765   23.8575 Q=    0.4170 A=    0.0000 R=    0.0000 C=    0.0000
 XYZ=    8.4668   14.4818   23.8685 Q=    0.4170 A=    0.0000 R=    0.0000 C=    0.0000
 XYZ=    2.9732   19.3279   15.5987 Q=   -0.8340 A=    0.0000 R=    0.0000 C=    0.0000
 XYZ=    2.5992   19.6629   16.4136 Q=    0.4170 A=    0.0000 R=    0.0000 C=    0.0000
 XYZ=    2.9876   20.0844   15.0124 Q=    0.4170 A=    0.0000 R=    0.0000 C=    0.0000
 XYZ=   20.4218   24.7894   17.3656 Q=   -0.8340 A=    0.0000 R=    0.0000 C=    0.0000
 XYZ=   20.5215   24.1235   18.0459 Q=    0.4170 A=    0.0000 R=    0.0000 C=    0.0000
 XYZ=   20.9736   24.4821   16.6463 Q=    0.4170 A=    0.0000 R=    0.0000 C=    0.0000
 XYZ=   14.8655   22.7652   25.8045 Q=   -0.8340 A=    0.0000 R=    0.0000 C=    0.0000
 XYZ=   14.4675   23.2894   26.4995 Q=    0.4170 A=    0.0000 R=    0.0000 C=    0.0000
 XYZ=   14.4238   23.0516   25.0051 Q=    0.4170 A=    0.0000 R=    0.0000 C=    0.0000
 XYZ=    6.8500   15.2258   10.1966 Q=   -0.8340 A=    0.0000 R=    0.0000 C=    0.0000
 XYZ=    6.7911   14.3114   10.4732 Q=    0.4170 A=    0.0000 R=    0.0000 C=    0.0000
 XYZ=    6.9753   15.7149   11.0098 Q=    0.4170 A=    0.0000 R=    0.0000 C=    0.0000
 XYZ=   10.2474    3.8210   18.0340 Q=   -0.8340 A=    0.0000 R=    0.0000 C=    0.0000
 XYZ=   10.6357    4.6021   18.4283 Q=    0.4170 A=    0.0000 R=    0.0000 C=    0.0000
 XYZ=   10.9951    3.3188   17.7101 Q=    0.4170 A=    0.0000 R=    0.0000 C=    0.0000
 XYZ=    3.7158   17.5106   23.3173 Q=   -0.8340 A=    0.0000 R=    0.0000 C=    0.0000
 XYZ=    3.0341   17.9409   22.8012 Q=    0.4170 A=    0.0000 R=    0.0000 C=    0.0000
 XYZ=    3.9420   18.1479   23.9947 Q=    0.4170 A=    0.0000 R=    0.0000 C=    0.0000
 XYZ=   12.2296   20.0406    9.6899 Q=   -0.8340 A=    0.0000 R=    0.0000 C=    0.0000
 XYZ=   12.4624   19.9750    8.7637 Q=    0.4170 A=    0.0000 R=    0.0000 C=    0.0000
 XYZ=   12.9950   19.7019   10.1543 Q=    0.4170 A=    0.0000 R=    0.0000 C=    0.0000
 XYZ=   14.5913   30.6263   10.7358 Q=   -0.8340 A=    0.0000 R=    0.0000 C=    0.0000
 XYZ=   14.9496   30.2221    9.9456 Q=    0.4170 A=    0.0000 R=    0.0000 C=    0.0000
 XYZ=   15.2715   30.5034   11.3979 Q=    0.4170 A=    0.0000 R=    0.0000 C=    0.0000
 XYZ=   10.5076   28.5170   10.7554 Q=   -0.8340 A=    0.0000 R=    0.0000 C=    0.0000
 XYZ=   11.2457   29.0697   10.4983 Q=    0.4170 A=    0.0000 R=    0.0000 C=    0.0000
 XYZ=    9.8130   29.1348   10.9834 Q=    0.4170 A=    0.0000 R=    0.0000 C=    0.0000
 XYZ=    6.3246    7.2335   17.0982 Q=   -0.8340 A=    0.0000 R=    0.0000 C=    0.0000
 XYZ=    5.7298    6.7022   17.6275 Q=    0.4170 A=    0.0000 R=    0.0000 C=    0.0000
 XYZ=    6.3070    8.0969   17.5109 Q=    0.4170 A=    0.0000 R=    0.0000 C=    0.0000
 XYZ=   10.5612   24.5641   17.5788 Q=   -0.8340 A=    0.0000 R=    0.0000 C=    0.0000
 XYZ=   11.4575   24.5091   17.2475 Q=    0.4170 A=    0.0000 R=    0.0000 C=    0.0000
 XYZ=   10.0114   24.4616   16.8020 Q=    0.4170 A=    0.0000 R=    0.0000 C=    0.0000
 XYZ=    8.7177   11.0156   26.2615 Q=   -0.8340 A=    0.0000 R=    0.0000 C=    0.0000
 XYZ=    7.7907   10.8318   26.1098 Q=    0.4170 A=    0.0000 R=    0.0000 C=    0.0000
 XYZ=    8.7476   11.9517   26.4590 Q=    0.4170 A=    0.0000 R=    0.0000 C=    0.0000
 XYZ=    4.9473   12.6866   21.9828 Q=   -0.8340 A=    0.0000 R=    0.0000 C=    0.0000
 XYZ=    4.0379   12.9845   22.0052 Q=    0.4170 A=    0.0000 R=    0.0000 C=    0.0000
 XYZ=    4.9125   11.7850   22.3021 Q=    0.4170 A=    0.0000 R=    0.0000 C=    0.0000
 XYZ=   18.8424    3.3005   12.5095 Q=   -0.8340 A=    0.0000 R=    0.0000 C=    0.0000
 XYZ=   19.0341    4.1573   12.8908 Q=    0.4170 A=    0.0000 R=    0.0000 C=    0.0000
 XYZ=   19.5739    3.1333   11.9152 Q=    0.4170 A=    0.0000 R=    0.0000 C=    0.0000
 XYZ=    7.3858   10.3201   17.8251 Q=   -0.8340 A=    0.0000 R=    0.0000 C=    0.0000
 XYZ=    8.2170   10.1670   18.2743 Q=    0.4170 A=    0.0000 R=    0.0000 C=    0.0000
 XYZ=    7.4266   11.2361   17.5504 Q=    0.4170 A=    0.0000 R=    0.0000 C=    0.0000
 XYZ=   16.9019    8.6484   21.1118 Q=   -0.8340 A=    0.0000 R=    0.0000 C=    0.0000
 XYZ=   16.0828    8.5990   20.6190 Q=    0.4170 A=    0.0000 R=    0.0000 C=    0.0000
 XYZ=   17.5321    9.0179   20.4933 Q=    0.4170 A=    0.0000 R=    0.0000 C=    0.0000
 XYZ=   26.5070   17.8078   15.4836 Q=   -0.8340 A=    0.0000 R=    0.0000 C=    0.0000
 XYZ=   26.4674   16.8943   15.2004 Q=    0.4170 A=    0.0000 R=    0.0000 C=    0.0000
 XYZ=   27.3308   18.1354   15.1226 Q=    0.4170 A=    0.0000 R=    0.0000 C=    0.0000
 XYZ=    7.5582   27.1047   20.4529 Q=   -0.8340 A=    0.0000 R=    0.0000 C=    0.0000
 XYZ=    7.9764   27.5213   19.6994 Q=    0.4170 A=    0.0000 R=    0.0000 C=    0.0000
 XYZ=    7.6664   26.1662   20.2988 Q=    0.4170 A=    0.0000 R=    0.0000 C=    0.0000
 XYZ=    5.6776   19.6419    8.3517 Q=   -0.8340 A=    0.0000 R=    0.0000 C=    0.0000
 XYZ=    6.3398   18.9979    8.6029 Q=    0.4170 A=    0.0000 R=    0.0000 C=    0.0000
 XYZ=    5.7671   20.3426    8.9976 Q=    0.4170 A=    0.0000 R=    0.0000 C=    0.0000
 XYZ=    7.8247   20.3459    5.1235 Q=   -0.8340 A=    0.0000 R=    0.0000 C=    0.0000
 XYZ=    6.8841   20.4879    5.0171 Q=    0.4170 A=    0.0000 R=    0.0000 C=    0.0000
 XYZ=    7.8949   19.4609    5.4812 Q=    0.4170 A=    0.0000 R=    0.0000 C=    0.0000
 XYZ=   25.2098   13.1826    7.6466 Q=   -0.8340 A=    0.0000 R=    0.0000 C=    0.0000
 XYZ=   25.6488   13.4706    6.8463 Q=    0.4170 A=    0.0000 R=    0.0000 C=    0.0000
 XYZ=   24.3972   13.6880    7.6698 Q=    0.4170 A=    0.0000 R=    0.0000 C=    0.0000
 XYZ=   19.9986   20.4184    7.5709 Q=   -0.8340 A=    0.0000 R=    0.0000 C=    0.0000
 XYZ=   20.3406   21.2774    7.3233 Q=    0.4170 A=    0.0000 R=    0.0000 C=    0.0000
 XYZ=   20.6342   19.7960    7.2176 Q=    0.4170 A=    0.0000 R=    0.0000 C=    0.0000
 XYZ=   22.9124   11.8251   12.3832 Q=   -0.8340 A=    0.0000 R=    0.0000 C=    0.0000
 XYZ=   22.9054   12.1434   13.2859 Q=    0.4170 A=    0.0000 R=    0.0000 C=    0.0000
 XYZ=   22.1563   11.2406   12.3290 Q=    0.4170 A=    0.0000 R=    0.0000 C=    0.0000
 XYZ=   22.1267    2.6523   17.5170 Q=   -0.8340 A=    0.0000 R=    0.0000 C=    0.0000
 XYZ=   22.7886    3.0936   16.9847 Q=    0.4170 A=    0.0000 R=    0.0000 C=    0.0000
 XYZ=   21.3240    3.1507   17.3636 Q=    0.4170 A=    0.0000 R=    0.0000 C=    0.0000
 XYZ=   11.3366   29.2158   18.1916 Q=   -0.8340 A=    0.0000 R=    0.0000 C=    0.0000
 XYZ=   10.9732   28.6477   18.8710 Q=    0.4170 A=    0.0000 R=    0.0000 C=    0.0000
 XYZ=   10.5911   29.7338   17.8880 Q=    0.4170 A=    0.0000 R=    0.0000 C=    0.0000
 XYZ=   15.8988   21.0796    9.2060 Q=   -0.8340 A=    0.0000 R=    0.0000 C=    0.0000
 XYZ=   15.1582   21.5984    9.5199 Q=    0.4170 A=    0.0000 R=    0.0000 C=    0.0000
 XYZ=   16.4569   20.9678    9.9756 Q=    0.4170 A=    0.0000 R=    0.0000 C=    0.0000
 XYZ=   28.1960   12.7380   16.3335 Q=   -0.8340 A=    0.0000 R=    0.0000 C=    0.0000
 XYZ=   27.7212   12.5998   17.1531 Q=    0.4170 A=    0.0000 R=    0.0000 C=    0.0000
 XYZ=   28.8467   13.4079   16.5432 Q=    0.4170 A=    0.0000 R=    0.0000 C=    0.0000
 XYZ=   17.1912   22.6807    7.3352 Q=   -0.8340 A=    0.0000 R=    0.0000 C=    0.0000
 XYZ=   17.4132   23.4195    7.9020 Q=    0.4170 A=    0.0000 R=    0.0000 C=    0.0000
 XYZ=   16.6993   22.0845    7.8997 Q=    0.4170 A=    0.0000 R=    0.0000 C=    0.0000
 XYZ=   15.9132    5.9739   12.4138 Q=   -0.8340 A=    0.0000 R=    0.0000 C=    0.0000
 XYZ=   16.3765    6.5264   13.0433 Q=    0.4170 A=    0.0000 R=    0.0000 C=    0.0000
 XYZ=   15.0050    6.2736   12.4541 Q=    0.4170 A=    0.0000 R=    0.0000 C=    0.0000
 XYZ=   24.1737   20.8035   23.3646 Q=   -0.8340 A=    0.0000 R=    0.0000 C=    0.0000
 XYZ=   23.2978   21.0796   23.6347 Q=    0.4170 A=    0.0000 R=    0.0000 C=    0.0000
 XYZ=   24.1332   19.8472   23.3606 Q=    0.4170 A=    0.0000 R=    0.0000 C=    0.0000
 XYZ=   11.1592    8.2845   15.7276 Q=   -0.8340 A=    0.0000 R=    0.0000 C=    0.0000
 XYZ=   10.3489    7.9203   16.0841 Q=    0.4170 A=    0.0000 R=    0.0000 C=    0.0000
 XYZ=   10.8998    9.1271   15.3547 Q=    0.4170 A=    0.0000 R=    0.0000 C=    0.0000
 XYZ=   14.4706   10.1560   12.6420 Q=   -0.8340 A=    0.0000 R=    0.0000 C=    0.0000
 XYZ=   14.3176    9.2617   12.9472 Q=    0.4170 A=    0.0000 R=    0.0000 C=    0.0000
 XYZ=   14.0376   10.1959   11.7893 Q=    0.4170 A=    0.0000 R=    0.0000 C=    0.0000
 XYZ=   13.8810   13.0893   20.0373 Q=   -0.8340 A=    0.0000 R=    0.0000 C=    0.0000
 XYZ=   13.9365   12.6288   19.2000 Q=    0.4170 A=    0.0000 R=    0.0000 C=    0.0000
 XYZ=   13.3301   13.8509   19.8564 Q=    0.4170 A=    0.0000 R=    0.0000 C=    0.0000
 XYZ=   13.4464    3.8507   18.8976 Q=   -0.8340 A=    0.0000 R=    0.0000 C=    0.0000
 XYZ=   13.3740    2.9280   19.1418 Q=    0.4170 A=    0.0000 R=    0.0000 C=    0.0000
 XYZ=   13.3372    3.8565   17.9467 Q=    0.4170 A=    0.0000 R=    0.0000 C=    0.0000
 XYZ=   20.9210   16.9951   24.4291 Q=   -0.8340 A=    0.0000 R=    0.0000 C=    0.0000
 XYZ=   20.1604   16.5283   24.7754 Q=    0.4170 A=    0.0000 R=    0.0000 C=    0.0000
 XYZ=   21.3896   16.3400   23.9120 Q=    0.4170 A=    0.0000 R=    0.0000 C=    0.0000
 XYZ=   10.9764   22.2261    5.0257 Q=   -0.8340 A=    0.0000 R=    0.0000 C=    0.0000
 XYZ=   11.0714   21.2741    4.9950 Q=    0.4170 A=    0.0000 R=    0.0000 C=    0.0000
 XYZ=   10.3620   22.4288    4.3202 Q=    0.4170 A=    0.0000 R=    0.0000 C=    0.0000
[...]
 0.00063783,0.00431350,-0.00007981,-0.00111514,0.00185155,0.00046841,0.
 00008924,-0.00035443,-0.00010277,-0.00007313,-0.00002247,-0.00196718,-
 0.00480887,-0.00010675,0.00013417,0.00008936,0.00008812,-0.00006718,-0
 .00003774,0.00001384,-0.00004093,-0.00002834,0.00034860,0.00009567,0.0
 0009123,-0.00006578,-0.00001699,-0.00001499,-0.00027760,0.00003662,-0.
 00003735,0.00015092,-0.00013152,0.00048004,-0.00031474,0.00004643,-0.0
 0015496,0.00000142,0.00001346,-0.00012172,-0.00013236,-0.00016336,0.00
 035300,-0.00000810,0.00006672,-0.00020951,0.00010814,0.00003094,-0.000
 15546,-0.00053471,-0.00031038,-0.00018756,0.00049205,0.00025865,-0.000
 05663,0.00005239,0.00008297,0.00007787,0.00041543,-0.00006180,-0.00009
 531,-0.00026445,0.00010735,0.00020805,-0.00018859,0.00000949,0.0000644
 2,0.00083217,-0.00265365,0.00126615,0.00006428,0.00041515,0.00005853,-
 0.00009517,0.00066610,-0.00106343,-0.00050826,0.00011717,-0.00006914,0
 .00049873,-0.00013248,0.00014730,0.00017461,0.00003216,-0.00007352,0.0
 0001097,0.00013486,0.00015867,-0.00002397,-0.00004799,-0.00003422,-0.0
 0000770,-0.00005305,-0.00013757,0.00372682,-0.01074049,0.00198904,-0.0
 0163836,0.00067031,-0.00062339,-0.00789966,-0.00004303,-0.00062844,-0.
 00021975,-0.00005932,0.00010526,0.00008581,0.00000931,-0.00000922,0.00
 012490,0.00002656,-0.00010761,-0.00008283,-0.00003750,0.00015163,0.000
 02051,0.00003002,-0.00007265,0.00005729,0.00001063,-0.00006805,-0.0000
 1959,0.00020138,-0.00013619,0.00005110,-0.00009076,0.00008603,-0.00005
 231,-0.00015630,0.00006816,0.00004789,-0.00003824,0.00026201,-0.000055
 87,0.00000363,-0.00010756,0.00002450,0.00003883,-0.00015559,0.30288620
 ,-0.00341542,-0.00002913,0.00086995,-0.00082325,-0.00028845,-0.0000249
 9,0.00033360,0.00040428,0.00034492,-0.00164486,-0.00160730,-0.00101327
 ,0.00327124,0.00157727,-0.00173285,0.00002998,0.00001541,0.00000938,0.
 00000899,-0.00003957,0.00000690,0.00049611,0.00147532,0.00079664,0.001
 93172,-0.00024986,-0.00196040,0.00132673,-0.00043420,-0.00043594,-0.00
 003644,0.00000655,0.00014553,0.00055781,-0.00388518,-0.00043415,0.0000
 5455,0.00004977,-0.00005606,-0.00003817,-0.00003354,0.00002370,-0.0000
 1004,-0.00001683,0.00001618,0.00002998,-0.00000346,-0.00019634,-0.0000
 1444,-0.00000354,0.00004968,0.00000249,-0.00002624,0.00015656,-0.00043
 613,0.00058662,0.00090503,-0.00003406,-0.00036867,-0.00041326,0.000256
 55,-0.00029708,-0.00018940,-0.00044075,0.00022154,0.00024146,0.0002947
 7,-0.00013633,-0.00019636,0.00012833,-0.00016606,-0.00001783,-0.000483
 94,0.00037815,-0.00005202,0.00034604,-0.00042754,-0.00011011,0.0000852
 0,-0.00005293,0.00004292,-0.00007180,0.00019938,-0.00024289,0.00008736
 ,-0.00012888,0.00023963,-0.00001515,-0.00015908,0.00006452,-0.00175563
 ,-0.00362463,0.00213239,0.00053991,0.00038435,0.00063049,0.00023605,-0
 .00007642,-0.00125189,0.00011878,0.00024933,0.00003177,-0.00012003,-0.
 00017099,-0.00006736,-0.00003526,-0.00009772,0.00002536,0.00006103,0.0
 0001397,-0.00009583,-0.00002453,-0.00000700,0.00004382,-0.00003326,-0.
 00003074,0.00005641,-0.00808957,-0.01908734,0.00397255,-0.00009137,0.0
 0008134,-0.00174462,-0.00370200,-0.00259245,0.00350322,-0.00001099,0.0
 0015259,-0.00004289,0.00000583,-0.00003559,0.00001039,0.00000096,-0.00
 010517,0.00003104,-0.00006216,0.00021497,-0.00001434,0.00004070,-0.000
 06057,-0.00001419,-0.00002718,-0.00007176,0.00004792,0.00016900,0.0000
 0030,-0.00001411,-0.00010529,-0.00003262,0.00000459,-0.00014011,0.0000
 2366,0.00001266,-0.00005228,0.00030528,0.00006405,-0.00005321,-0.00006
 090,0.00001367,-0.00000455,-0.00010292,0.00004784,-0.13636336,0.427373
 62,-0.00229994,0.00247668,0.00161074,-0.00072040,-0.00022359,-0.000033
 20,0.00104435,0.00032125,0.00015723,-0.00411955,-0.00254173,-0.0023148
 8,0.00684754,-0.00147023,-0.00167308,0.00001987,0.00006557,0.00005000,
 0.00005028,-0.00012201,-0.00016512,0.00161433,0.00129948,0.00184738,0.
 00115880,-0.00274565,-0.00235931,0.00129616,-0.00139637,-0.00106474,0.
 00020498,0.00027701,0.00005837,-0.00490133,0.00181410,-0.00065959,0.00
 015176,-0.00014167,-0.00003566,-0.00011550,0.00006604,-0.00001125,-0.0
 0002421,0.00003986,0.00000699,-0.00019433,-0.00034692,-0.00024403,0.00
 001903,0.00006269,0.00007047,0.00012756,0.00020319,0.00023113,0.000343
 80,0.00030247,-0.00076569,0.00001361,-0.00027216,0.00066095,-0.0001537
 6,0.00007895,0.00026365,0.00039443,0.00019655,-0.00011850,-0.00034547,
 -0.00011054,0.00012393,-0.00014957,-0.00003943,0.00005920,0.00000927,0
 .00009527,0.00047064,-0.00021535,-0.00028174,-0.00034246,-0.00003332,-
 0.00003068,-0.00002953,-0.00042593,-0.00018901,-0.00030124,0.00037819,
 0.00018801,0.00014973,0.00017162,0.00004229,0.00023202,0.00121076,0.00
 297079,0.00079333,-0.00031452,-0.00005703,-0.00086858,-0.00072458,-0.0
 0112657,0.00074147,0.00029828,-0.00004571,0.00050077,-0.00039991,0.000
 10012,-0.00056364,-0.00006813,-0.00001258,-0.00010409,0.00008293,-0.00
 016661,-0.00017938,-0.00001399,0.00007141,0.00005857,-0.00004738,0.000
 05532,0.00014727,0.00231178,0.00620230,0.00642320,-0.00090941,-0.00329
 388,0.00126347,-0.00023716,0.00332539,-0.00942741,0.00017985,0.0000312
 2,0.00007892,-0.00007533,-0.00000611,-0.00001854,-0.00016157,-0.000035
 03,0.00000119,0.00022282,0.00007655,-0.00006061,-0.00006556,-0.0000367
 7,0.00004908,-0.00011901,-0.00002698,0.00004144,-0.00006204,-0.0000633
 7,0.00031284,0.00006490,0.00003548,-0.00016681,0.00006447,0.00000237,-
 0.00020142,0.00017107,0.00002612,-0.00032086,-0.00000871,-0.00001365,0
 .00014493,-0.00013704,-0.00006396,0.00012333,0.29750367,0.10452312,0.5
 2794216,0.00092640,0.00115918,0.00069337,0.00019920,0.00007655,0.00003
 476,0.00013613,-0.00014742,-0.00020910,-0.00081532,-0.00000905,0.00003
 211,0.00029891,-0.00075989,0.00023309,-0.00001388,0.00000773,0.0000379
 9,0.00000803,-0.00002435,-0.00003885,0.00034315,-0.00016566,0.00005344
 ,-0.00096620,-0.00067602,-0.00025479,-0.00029117,-0.00020473,-0.000194
 45,0.00011772,0.00008026,0.00005596,-0.00273085,0.00212853,0.00020373,
 0.00004305,-0.00005961,-0.00003135,-0.00003427,0.00002945,0.00001063,-
 0.00000639,0.00001880,0.00001094,-0.00018060,-0.00002512,-0.00005819,0
 .00003858,0.00000423,0.00000584,0.00016616,-0.00003417,0.00004189,0.00
 009061,0.00000578,-0.00063446,0.00023614,-0.00004362,0.00039290,-0.000
 08225,0.00009014,0.00012965,0.00021206,0.00002562,-0.00018747,-0.00013
 476,-0.00000515,0.00014443,-0.00008378,0.00002205,0.00005644,0.0002246
 9,-0.00000565,0.00010686,-0.00020268,0.00001319,-0.00002107,-0.0000425
 0,-0.00001663,-0.00003026,-0.00031604,0.00009723,0.00008023,0.00021600
 ,-0.00016167,-0.00015817,0.00016243,-0.00001416,-0.00006787,0.00070926
 ,0.00251602,-0.00049357,-0.00023596,-0.00019140,-0.00045221,-0.0004776
 1,-0.00073931,0.00097555,0.00014821,-0.00006375,0.00005132,-0.00013767
 ,0.00006514,-0.00007713,-0.00004798,0.00000365,0.00001146,-0.00000593,
 -0.00005727,-0.00006442,0.00001128,0.00002124,0.00001556,0.00000419,0.
 00002645,0.00005367,-0.00239219,-0.00071819,-0.00017727,0.00045755,0.0
 0019182,-0.00010850,0.00241338,0.00130243,0.00055705,0.00008547,-0.000
 00404,-0.00001760,-0.00003668,0.00000009,0.00000117,-0.00005387,0.0000
 0821,0.00002313,0.00006690,-0.00002180,-0.00005841,-0.00002234,-0.0000
 0271,0.00003603,-0.00002609,0.00000558,0.00001905,0.00000485,-0.000059
 94,0.00005238,-0.00000786,0.00002487,-0.00003186,0.00001174,0.00004101
 ,-0.00002698,0.00001039,-0.00005374,-0.00015903,0.00003940,0.00000456,
 0.00005676,-0.00002377,0.00000096,0.00005995,-0.24842178,0.18452518,-0
 .20306120,0.25507798,0.00324166,0.00000416,-0.00032612,0.00050523,0.00
 019820,0.00005077,-0.00021964,-0.00019774,-0.00014245,0.00081257,0.000
 57709,0.00032536,-0.00103888,-0.00047401,-0.00024003,-0.00003054,-0.00
 001723,-0.00001252,-0.00000276,0.00000875,0.00000196,-0.00041514,-0.00
 058087,-0.00032109,-0.00210255,0.00076960,0.00104354,-0.00106844,0.000
 44764,0.00049963,-0.00000780,-0.00007691,-0.00007333,0.00078839,0.0002
 1863,-0.00026039,-0.00004347,-0.00000262,0.00003231,0.00003136,0.00000
 487,-0.00001217,0.00000700,0.00000177,-0.00000896,0.00000249,0.0000742
 9,0.00013266,0.00000811,-0.00000729,-0.00003670,-0.00000155,-0.0000423
 2,-0.00012297,0.00028793,-0.00041397,-0.00045502,-0.00004998,0.0003293
 6,0.00023882,-0.00013175,0.00017833,0.00009527,0.00022535,-0.00014778,
 -0.00007356,-0.00017042,0.00008932,0.00007660,-0.00005593,0.00009006,-
 0.00001131,0.00011382,-0.00022676,0.00002103,-0.00007310,0.00023037,0.
 00001954,-0.00003825,0.00004199,-0.00000641,0.00008434,-0.00005751,0.0
 0023425,-0.00011253,-0.00002522,-0.00026355,-0.00001049,0.00010877,-0.
 00010027,0.00174814,0.00098546,-0.00021940,-0.00016903,-0.00027825,-0.
 00047304,-0.00029148,0.00028138,0.00042869,-0.00010762,-0.00007712,-0.
 00004072,0.00010627,0.00003703,0.00006564,0.00003624,0.00004547,-0.000
 01415,-0.00004238,0.00001747,0.00007062,0.00001464,-0.00000748,-0.0000
 2922,0.00002405,0.00000923,-0.00004873,-0.00216909,0.00032320,-0.00106
 193,0.00033392,0.00006207,0.00010556,0.00377237,-0.00084414,0.00214147
 ,-0.00002518,-0.00007754,0.00002915,0.00000872,0.00001750,-0.00000559,
 0.00001762,0.00005743,-0.00002748,0.00001711,-0.00012113,0.00002613,-0
 .00001766,0.00003694,-0.00000169,0.00002633,0.00003909,-0.00003437,-0.
 00004577,0.00001529,-0.00002966,0.00002739,0.00000104,0.00001526,0.000
 02964,-0.00001115,0.00001855,0.00002025,-0.00018463,-0.00000340,0.0000
 3394,0.00003636,-0.00002631,0.00001022,0.00006133,-0.00004315,0.213857
 12,-0.19105619,0.15417728,-0.18888662,0.17529464,0.00277792,-0.0003495
 0,-0.00001889,0.00038063,0.00012674,0.00006396,-0.00017223,-0.00018338
 ,-0.00009661,0.00062599,0.00036134,0.00043579,-0.00054772,-0.00033640,
 -0.00165588,-0.00002433,-0.00002426,-0.00000505,0.00000456,-0.00001109
 ,0.00001918,-0.00028328,-0.00024229,-0.00051749,-0.00164435,0.00136407
 ,0.00013589,-0.00084460,0.00031776,0.00040389,-0.00000533,-0.00010566,
 -0.00000570,0.00095452,-0.00080098,0.00212958,-0.00003818,0.00004278,-
 0.00000684,0.00002734,-0.00002004,0.00001140,0.00000819,-0.00001310,0.
 00000320,-0.00000863,0.00017438,0.00005488,0.00000644,-0.00003814,-0.0
 0002629,0.00004251,-0.00014828,-0.00006544,-0.00044000,-0.00006278,0.0
 0047964,0.00026007,0.00014718,-0.00063004,0.00013956,-0.00014954,-0.00
 019358,-0.00025744,-0.00004361,-0.00001708,0.00029741,0.00003572,-0.00
 000497,0.00006594,-0.00002167,-0.00000170,0.00001564,0.00000398,-0.000
 14358,0.00004338,0.00002654,0.00011397,0.00001202,0.00000370,0.0000175
 0,0.00011920,0.00027740,0.00018569,-0.00015413,-0.00028801,-0.00010808
 ,-0.00006356,-0.00012359,-0.00022196,-0.00086644,-0.00110159,-0.001432
 44,0.00003785,0.00013273,0.00042382,0.00092661,0.00063591,-0.00016211,
 -0.00004135,0.00001542,-0.00013687,0.00006384,-0.00002466,0.00013376,0
 .00000441,-0.00000552,0.00004562,-0.00003489,0.00005214,0.00003355,0.0
 0001048,-0.00002699,-0.00001531,0.00002102,-0.00002158,-0.00002741,-0.
 00019588,-0.00186195,-0.00002478,-0.00027374,0.00046015,-0.00019632,0.
 00051395,0.00214532,0.00040640,-0.00004689,0.00001152,-0.00004841,0.00
 002257,-0.00000243,0.00001034,0.00004613,-0.00000705,0.00002404,-0.000
 10686,0.00000914,-0.00001201,0.00004062,0.00000357,-0.00001089,0.00004
 053,-0.00000409,0.00000436,0.00002721,0.00001278,-0.00008584,-0.000024
 32,-0.00000914,0.00004334,-0.00002633,0.00000467,0.00005458,-0.0001454
 3,0.00007134,0.00012159,0.00001429,-0.00000688,-0.00004978,0.00007372,
 0.00000143,-0.00000509,-0.17886297,0.11241342,-0.16851619,0.20364583,-
 0.13542699,0.19207024,0.00191539,-0.00019545,-0.00046566,0.00061163,0.
 00019829,0.00003510,-0.00028033,-0.00050168,-0.00031254,0.00119396,0.0
 0151303,0.00140429,-0.00237246,-0.00018910,0.00028199,-0.00002486,-0.0
 0000116,0.00001763,-0.00001329,0.00002698,0.00002605,-0.00022772,-0.00
 101291,-0.00131532,-0.00088088,0.00031509,0.00065429,-0.00076539,0.000
 18447,0.00018835,0.00005801,0.00002197,0.00003219,0.00214198,0.0008282
 5,0.00072765,0.00000635,-0.00003293,-0.00002918,-0.00000695,0.00002050
 ,0.00002179,-0.00000085,0.00001220,0.00001088,-0.00007803,0.00000564,0
 .00001315,0.00002068,0.00000006,-0.00000409,0.00005876,-0.00002355,-0.
 00002325,-0.00008033,-0.00006035,-0.00011993,0.00007792,0.00004176,-0.
 00000940,0.00000546,0.00001413,0.00002090,0.00000089,0.00000241,-0.000
 17885,0.00005622,0.00001257,0.00007847,-0.00002138,0.00001838,0.000069
 55,0.00051988,0.00014463,-0.00011088,-0.00028909,0.00004418,0.00026952
 ,-0.00002805,-0.00004742,-0.00007994,-0.00007110,0.00001090,0.00005153
 ,0.00003583,-0.00001138,-0.00004767,0.00003781,0.00000396,-0.00002816,
 -0.00101644,0.00064832,-0.00103311,0.00009375,-0.00043077,0.00042986,0
 .00011712,-0.00005166,0.00042942,0.00016591,-0.00011175,-0.00018416,-0
 .00010740,0.00009168,0.00019417,-0.00007134,0.00000186,0.00008627,-0.0
 0002225,-0.00002352,-0.00002317,0.00001152,0.00000840,0.00000200,0.000
 01391,0.00001353,0.00002159,-0.00033128,0.00116125,0.00045491,0.000546
 95,-0.00103198,0.00028709,-0.00028528,-0.00122844,-0.00013238,0.000067
 23,0.00000280,-0.00008809,-0.00002748,-0.00000037,0.00000997,-0.000013
 63,0.00001151,0.00005436,-0.00001137,-0.00002710,-0.00006003,-0.000000
 08,-0.00000015,0.00002734,0.00000505,0.00001249,0.00002018,0.00000291,
 -0.00008873,-0.00001569,-0.00002795,0.00004855,0.00000472,0.00002895,0
 .00007088,0.00001839,-0.00004397,-0.00002070,-0.00004732,0.00002423,0.
 00000516,0.00001760,0.00002158,0.00001042,0.00003180,-0.04671260,-0.03
 835838,-0.09404418,-0.00654303,-0.01890292,-0.02919393,0.05534528,-0.0
 0003957,-0.00015698,-0.00017535,0.00011019,0.00001285,0.00000725,-0.00
 006777,-0.00004873,-0.00003435,0.00058175,0.00037078,0.00002489,-0.000
 52925,0.00017607,0.00035497,-0.00000041,0.00000211,-0.00001694,-0.0000
 0340,0.00002038,-0.00000125,-0.00023417,-0.00044012,-0.00006395,-0.000
 09432,0.00005403,-0.00015607,-0.00010254,0.00004879,0.00012381,-0.0000
 1383,0.00000511,-0.00003492,0.00062283,-0.00008411,-0.00071019,-0.0000
 2391,-0.00001535,0.00002759,0.00001762,0.00001192,-0.00001371,0.000004
 84,0.00000511,-0.00000827,-0.00000537,0.00001272,0.00005400,0.00000416
 ,-0.00000375,-0.00001732,0.00000398,0.00000022,-0.00003101,0.00009170,
 -0.00023698,-0.00023614,0.00004396,0.00016298,0.00002265,-0.00007399,0
 .00007542,0.00003393,0.00011955,-0.00010749,-0.00009134,-0.00005693,0.
 00006543,0.00006609,-0.00003834,0.00006306,0.00000072,0.00027026,-0.00
 025583,-0.00002471,-0.00012304,0.00025007,0.00008408,-0.00004236,0.000
 02754,-0.00001817,0.00001342,-0.00001947,0.00007757,-0.00001814,-0.000
 00628,-0.00006929,0.00000217,0.00002760,-0.00004513,0.00007283,-0.0000
 2729,-0.00165836,-0.00025076,-0.00031884,0.00042600,0.00016088,0.00043
 486,0.00020907,-0.00010088,-0.00013580,0.00001935,0.00009420,0.0000960
 9,-0.00000279,0.00002730,0.00005519,-0.00002413,-0.00001952,0.00000068
 ,0.00003897,0.00000742,-0.00000032,-0.00001600,0.00001105,0.00000738,-
 0.00002428,-0.00006964,-0.00002651,0.00190119,-0.00074409,-0.00153332,
 0.00041649,0.00016831,0.00113918,-0.00329835,-0.00000741,-0.00007503,0
 .00002774,0.00000215,0.00001572,-0.00000587,0.00000583,0.00004312,-0.0
 0001582,0.00001222,-0.00008120,0.00000671,-0.00000977,0.00002548,0.000
 00288,0.00001367,0.00002631,-0.00001913,-0.00008610,0.00003153,0.00003
 085,0.00007043,0.00000286,-0.00001371,0.00005212,-0.00004357,-0.000028
 25,0.00000323,-0.00009711,-0.00000372,0.00001688,0.00001947,-0.0000113
 1,0.00001148,0.00003995,-0.00002071,-0.06681232,-0.21014952,-0.2635627
 8,0.01070041,0.01350748,0.02403709,0.05271868,0.19863517,-0.00008068,-
 0.00054521,-0.00035981,0.00005603,0.00001416,-0.00000589,-0.00010764,0
 .00007914,0.00006520,0.00085346,-0.00005685,-0.00002544,-0.00020523,0.
 00052164,0.00031829,0.00000794,-0.00001548,-0.00001824,-0.00000292,0.0
 0000678,0.00003172,-0.00056392,0.00002036,-0.00017692,-0.00007976,0.00
 015185,0.00020905,-0.00010169,0.00029622,0.00021805,-0.00006646,-0.000
 07172,-0.00002142,0.00065841,-0.00134283,-0.00168603,-0.00005180,0.000
 05309,0.00000560,0.00003829,-0.00002519,0.00000824,0.00000992,-0.00001
 577,-0.00000039,0.00004071,0.00010759,0.00007025,-0.00000344,-0.000026
 20,-0.00002271,-0.00001901,-0.00006161,-0.00005476,-0.00020506,0.00006
 498,0.00044948,-0.00001657,-0.00003566,-0.00024590,0.00011016,-0.00007
 440,-0.00011611,-0.00024751,-0.00003070,0.00010814,0.00017819,0.000007
 08,-0.00009983,0.00008640,-0.00001663,-0.00002642,-0.00014158,-0.00001
 872,-0.00031032,0.00026966,0.00007852,0.00011327,0.00002320,0.00001424
 ,0.00002787,0.00008182,0.00006731,0.00008263,-0.00007025,-0.00005734,-
 0.00005526,-0.00003984,-0.00002640,-0.00006364,-0.00055093,-0.00182166
 ,0.00083681,0.00022582,0.00036806,0.00038280,0.00014487,0.00024434,-0.
 00063511,-0.00012112,0.00002992,-0.00021212,0.00018176,-0.00004718,0.0
 0021730,0.00002302,-0.00000719,0.00004505,-0.00002942,0.00005542,0.000
 05614,0.00000573,-0.00002457,-0.00001923,0.00001559,-0.00002182,-0.000
 04503,0.00091067,0.00202941,-0.00222869,0.00037285,0.00080937,0.000435
 40,-0.00065477,-0.00349790,0.00230189,-0.00007650,0.00000954,-0.000041
 67,0.00003172,-0.00000212,0.00001099,0.00006711,-0.00000587,0.00000484
 ,-0.00010101,0.00001121,0.00001885,0.00003422,0.00000364,-0.00002100,0
 .00004135,-0.00000117,-0.00000441,0.00000455,0.00002379,-0.00013711,-0
 .00001410,-0.00001271,0.00007880,-0.00000063,-0.00000517,0.00008583,-0
 .00007280,0.00004100,0.00012351,-0.00000306,-0.00000271,-0.00005018,0.
 00005035,0.00000798,-0.00003655,-0.11708243,-0.22122842,-0.35297433,-0
 .00446979,-0.01855391,-0.01934682,0.11547884,0.23732010,0.36840354\\0.
 01375480,0.01458491,0.00523495,0.00535723,-0.01236727,-0.05646049,0.05
 286246,0.00187223,0.03652225,0.00505900,0.02601923,-0.01928839,0.01150
 183,0.01812706,0.02951999,-0.00553430,0.02561726,0.02378854,-0.0436136
 3,0.00009060,0.00259639,-0.00880154,-0.02804418,-0.00394794,-0.0174431
 4,-0.01088567,-0.00809730,-0.01916332,-0.00458932,0.01164664,-0.004040
 07,-0.00906820,0.00307832,0.01500565,-0.01664945,-0.02146498,0.0137458
 6,0.00396489,0.00502385,-0.01426639,-0.00664106,-0.01528151,-0.0096183
 4,0.00562157,0.00362509,-0.01051238,0.01981436,-0.00546036,0.00020400,
 -0.00100302,0.01286753,0.01651742,-0.01476975,-0.00478656,0.00731384,-
 0.01384509,-0.01132157,0.01046987,0.00448945,-0.00101355,-0.00732105,0
 .01409972,0.01551567,-0.00885113,-0.01749305,-0.00457548,0.01053488,-0
 .00095350,-0.00250566,-0.01035958,0.00855952,0.00041647,-0.00049807,-0
 .00682971,-0.01728389,0.00808639,0.01031381,0.00681085,-0.00651773,-0.
 00562050,-0.00109710,0.00725837,0.01589748,0.00868996,-0.00564602,-0.0
 0734458,-0.01381446,-0.00661332,-0.01615236,0.00052625,0.01859406,0.00
 824412,0.00188914,-0.01727633,-0.01485825,-0.00494720,-0.00669114,0.00
 469331,0.00687238,-0.01103168,0.01546259,-0.02604988,0.01004123,-0.005
 15583,0.00552540,-0.00692584,-0.00614023,0.01073866,0.00131703,0.00570
 407,-0.01144654,0.00231270,0.01193870,0.01079779,-0.01238286,-0.011678
 30,0.00543707,0.01651574,0.01980211,0.00480952,-0.00071227,0.00121982,
 -0.01507487,-0.00635580,-0.01055833,0.00618043,0.00052046,-0.00610532,
 -0.01009456,-0.01577966,-0.00188717,0.00132026,0.00872403,-0.00248610,
 0.00782920,0.00808811,0.00123709,-0.01316998,-0.00270704,-0.01323761,0
 .02074902,-0.00548181,0.01323389,0.00504300,-0.00465519,0.00260428,-0.
 00018303,-0.00671791,-0.00630898,-0.00152322,0.01859365,0.00863502,0.0
 0158522,0.00985062,-0.00846631,-0.00229819,0.00445961,0.00510707,0.014
 56680,-0.01479556,-0.00022984,-0.00572426,-0.00589397,0.00203546,0.007
 13743,0.01192538,-0.00965438,0.00710041,-0.01189177,-0.00890175,-0.014
 91881\\\@


 ACHIEVEMENT--  THE MAN WHO ROWS THE BOAT GENERALLY 
                DOESN'T HAVE TIME TO ROCK IT.

                   -- FROM THE BACK OF A SUGAR PACKET
 Job cpu time:       1 days  3 hours  1 minutes 44.5 seconds.
 Elapsed time:       0 days  0 hours 50 minutes 41.7 seconds.
 File lengths (MBytes):  RWF=   2138 Int=      0 D2E=      0 Chk=     27 Scr=      1
 Normal termination of Gaussian 16 at Sat Sep 17 05:06:12 2022.
