 Entering Gaussian System, Link 0=/shared/gaussian/g16.b01/AVX2/g16/g16
 Input=snap005.S0.com
 Output=snap005.S0.log
 Initial command:
 /shared/gaussian/g16.b01/AVX2/g16/l1.exe "/scratch/giacomo/Gauscr/Gau-14785.inp" -scrdir="/scratch/giacomo/Gauscr/"
 Entering Link 1 = /shared/gaussian/g16.b01/AVX2/g16/l1.exe PID=     14786.
  
 Copyright (c) 1988-2017, Gaussian, Inc.  All Rights Reserved.
  
 This is part of the Gaussian(R) 16 program.  It is based on
 the Gaussian(R) 09 system (copyright 2009, Gaussian, Inc.),
 the Gaussian(R) 03 system (copyright 2003, Gaussian, Inc.),
 the Gaussian(R) 98 system (copyright 1998, Gaussian, Inc.),
 the Gaussian(R) 94 system (copyright 1995, Gaussian, Inc.),
 the Gaussian 92(TM) system (copyright 1992, Gaussian, Inc.),
 the Gaussian 90(TM) system (copyright 1990, Gaussian, Inc.),
 the Gaussian 88(TM) system (copyright 1988, Gaussian, Inc.),
 the Gaussian 86(TM) system (copyright 1986, Carnegie Mellon
 University), and the Gaussian 82(TM) system (copyright 1983,
 Carnegie Mellon University). Gaussian is a federally registered
 trademark of Gaussian, Inc.
  
 This software contains proprietary and confidential information,
 including trade secrets, belonging to Gaussian, Inc.
  
 This software is provided under written license and may be
 used, copied, transmitted, or stored only in accord with that
 written license.
  
 The following legend is applicable only to US Government
 contracts under FAR:
  
                    RESTRICTED RIGHTS LEGEND
  
 Use, reproduction and disclosure by the US Government is
 subject to restrictions as set forth in subparagraphs (a)
 and (c) of the Commercial Computer Software - Restricted
 Rights clause in FAR 52.227-19.
  
 Gaussian, Inc.
 340 Quinnipiac St., Bldg. 40, Wallingford CT 06492
  
  
 ---------------------------------------------------------------
 Warning -- This program may not be used in any manner that
 competes with the business of Gaussian, Inc. or will provide
 assistance to any competitor of Gaussian, Inc.  The licensee
 of this program is prohibited from giving any competitor of
 Gaussian, Inc. access to this program.  By using this program,
 the user acknowledges that Gaussian, Inc. is engaged in the
 business of creating and licensing software in the field of
 computational chemistry and represents and warrants to the
 licensee that it is not a competitor of Gaussian, Inc. and that
 it will not use this program in any manner prohibited above.
 ---------------------------------------------------------------
  

 Cite this work as:
 Gaussian 16, Revision B.01,
 M. J. Frisch, G. W. Trucks, H. B. Schlegel, G. E. Scuseria, 
 M. A. Robb, J. R. Cheeseman, G. Scalmani, V. Barone, 
 G. A. Petersson, H. Nakatsuji, X. Li, M. Caricato, A. V. Marenich, 
 J. Bloino, B. G. Janesko, R. Gomperts, B. Mennucci, H. P. Hratchian, 
 J. V. Ortiz, A. F. Izmaylov, J. L. Sonnenberg, D. Williams-Young, 
 F. Ding, F. Lipparini, F. Egidi, J. Goings, B. Peng, A. Petrone, 
 T. Henderson, D. Ranasinghe, V. G. Zakrzewski, J. Gao, N. Rega, 
 G. Zheng, W. Liang, M. Hada, M. Ehara, K. Toyota, R. Fukuda, 
 J. Hasegawa, M. Ishida, T. Nakajima, Y. Honda, O. Kitao, H. Nakai, 
 T. Vreven, K. Throssell, J. A. Montgomery, Jr., J. E. Peralta, 
 F. Ogliaro, M. J. Bearpark, J. J. Heyd, E. N. Brothers, K. N. Kudin, 
 V. N. Staroverov, T. A. Keith, R. Kobayashi, J. Normand, 
 K. Raghavachari, A. P. Rendell, J. C. Burant, S. S. Iyengar, 
 J. Tomasi, M. Cossi, J. M. Millam, M. Klene, C. Adamo, R. Cammi, 
 J. W. Ochterski, R. L. Martin, K. Morokuma, O. Farkas, 
 J. B. Foresman, and D. J. Fox, Gaussian, Inc., Wallingford CT, 2016.
 
 ******************************************
 Gaussian 16:  ES64L-G16RevB.01 20-Dec-2017
                16-Sep-2022 
 ******************************************
 %Nproc=32
 Will use up to   32 processors via shared memory.
 %Mem=120Gb
 %chk=temp.chk
 -------------------------------------------
 #p cam-b3lyp/6-31+G(d,p) nosymm charge Freq
 -------------------------------------------
 1/10=4,18=10,28=-2,30=1,38=1,125=101/1,3;
 2/12=2,15=1,17=6,18=5,40=1/2;
 3/5=1,6=6,7=111,11=2,25=1,30=1,71=2,74=-40,140=1/1,2,3;
 4//1;
 5/5=2,38=5,98=1/2;
 8/6=4,10=90,11=11/1;
 11/6=1,8=1,9=11,15=111,16=1,31=1/1,2,10;
 10/6=1,31=1/2;
 6/7=2,8=2,9=2,10=2,28=1/1;
 7/8=1,10=1,16=-2,25=1,30=1/1,2,3,16;
 1/10=4,18=10,28=-2,30=1/3;
 99//99;
 Leave Link    1 at Fri Sep 16 23:00:20 2022, MaxMem= 16106127360 cpu:               1.9 elap:               0.1
 (Enter /shared/gaussian/g16.b01/AVX2/g16/l101.exe)
 ------------------------------------------
 Calculation for S0 with freq for abs spect
 ------------------------------------------
 Symbolic Z-matrix:
 Charge =  0 Multiplicity = 1
 C                     15.79677   15.49246   17.30796 
 C                     16.52138   16.63711   15.33855 
 C                     17.20759   17.60965   15.97744 
 C                     17.21773   17.58793   17.40044 
 N                     16.52163   16.45637   17.88107 
 H                     16.38205   16.64145   14.26727 
 H                     17.47801   18.50314   15.51542 
 O                     17.98122   18.25178   18.09529 
 O                     15.15015   14.62824   17.89259 
 N                     15.85593   15.59383   15.92982 
 H                     15.2839   14.92245   15.4898 
 H                     16.68367   16.32964   18.86411 
 O                     15.87198   16.1316   11.94065 
 H                     16.23395   16.93338   11.56333 
 H                     14.98589   16.37237   12.21103 
 O                     13.19284   12.38422   17.25758 
 H                     13.88091   13.0356   17.39357 
 H                     13.5828   11.55926   17.54671 
 O                     19.95962   17.70172   14.54417 
 H                     20.70994   17.80489   15.1295 
 H                     19.51716   18.55014   14.56934 
 O                     21.39169   14.38247   16.6319 
 H                     20.81664   14.91847   16.08578 
 H                     22.21259   14.33533   16.14188 
 O                     14.27617   14.07905   14.10539 
 H                     13.91453   14.87589   13.71745 
 H                     13.52646   13.48928   14.18501 
 O                     19.41688   13.67106   20.41375 
 H                     19.35434   14.51314   19.96296 
 H                     18.53117   13.31043   20.37255 
 O                     16.63771   16.67978   20.75704 
 H                     16.34131   15.8552   21.14233 
 H                     16.08759   17.34749   21.16663 
 O                     20.20749   15.1259   14.0311 
 H                     19.65883   14.9383   13.26952 
 H                     20.11964   16.06982   14.16349 
 O                     13.21581   14.38988   19.95859 
 H                     13.71895   14.67729   20.72045 
 H                     13.80993   14.51281   19.21826 
 O                     21.81252   17.40454   16.70178 
 H                     22.53142   17.0033   17.19005 
 H                     21.02162   17.02032   17.08003 
 O                     16.83261   12.07974   16.82919 
 H                     17.6479   12.26397   17.29566 
 H                     17.09668   11.52751   16.0933 
 O                     11.29288   14.94795   16.42565 
 H                     12.10124   14.511    16.69372 
 H                     11.07107   15.51598   17.16347 
 O                     14.72479   19.53212   17.00062 
 H                     15.18008   20.36483   16.87593 
 H                     13.89365   19.6415   16.53857 
 O                     19.1701   20.62292   17.98711 
 H                     18.66678   19.81152   18.05438 
 H                     20.03236   20.34551   17.67763 
 O                     14.32209   19.83921   19.76542 
 H                     14.64542   19.42754   18.96403 
 H                     13.5564   19.31951   20.01011 
 O                     16.24483   12.97127   12.69647 
 H                     15.63373   13.26861   13.37054 
 H                     15.83589   13.23029   11.87074 
 O                     18.34825   14.73509   12.17353 
 H                     17.62995   15.34403   12.00188 
 H                     17.9185   13.89277   12.32199 
 O                     16.96242   12.36436   19.73594 
 H                     16.63222   12.42665   18.83966 
 H                     16.32204   11.81673   20.1901 
 O                     19.98841   16.31231   19.22826 
 H                     19.66763   17.08566   18.7643 
 H                     20.77165   16.6156   19.68737 
 
 ITRead=  0  0  0  0  0  0  0  0  0  0  0  0  0  0  0  0  0  0  0  0
 ITRead=  0  0  0  0  0  0  0  0  0  0  0  0  0  0  0  0  0  0  0  0
 ITRead=  0  0  0  0  0  0  0  0  0  0  0  0  0  0  0  0  0  0  0  0
 ITRead=  0  0  0  0  0  0  0  0  0
 MicOpt= -1 -1 -1 -1 -1 -1 -1 -1 -1 -1 -1 -1 -1 -1 -1 -1 -1 -1 -1 -1
 MicOpt= -1 -1 -1 -1 -1 -1 -1 -1 -1 -1 -1 -1 -1 -1 -1 -1 -1 -1 -1 -1
 MicOpt= -1 -1 -1 -1 -1 -1 -1 -1 -1 -1 -1 -1 -1 -1 -1 -1 -1 -1 -1 -1
 MicOpt= -1 -1 -1 -1 -1 -1 -1 -1 -1
 NAtoms=     69 NQM=       69 NQMF=       0 NMMI=      0 NMMIF=      0
                NMic=       0 NMicF=      0.
                    Isotopes and Nuclear Properties:
 (Nuclear quadrupole moments (NQMom) in fm**2, nuclear magnetic moments (NMagM)
  in nuclear magnetons)

  Atom         1           2           3           4           5           6           7           8           9          10
 IAtWgt=          12          12          12          12          14           1           1          16          16          14
 AtmWgt=  12.0000000  12.0000000  12.0000000  12.0000000  14.0030740   1.0078250   1.0078250  15.9949146  15.9949146  14.0030740
 NucSpn=           0           0           0           0           2           1           1           0           0           2
 AtZEff=  -0.0000000  -0.0000000  -0.0000000  -0.0000000  -0.0000000  -0.0000000  -0.0000000  -0.0000000  -0.0000000  -0.0000000
 NQMom=    0.0000000   0.0000000   0.0000000   0.0000000   2.0440000   0.0000000   0.0000000   0.0000000   0.0000000   2.0440000
 NMagM=    0.0000000   0.0000000   0.0000000   0.0000000   0.4037610   2.7928460   2.7928460   0.0000000   0.0000000   0.4037610
 AtZNuc=   6.0000000   6.0000000   6.0000000   6.0000000   7.0000000   1.0000000   1.0000000   8.0000000   8.0000000   7.0000000

  Atom        11          12          13          14          15          16          17          18          19          20
 IAtWgt=           1           1          16           1           1          16           1           1          16           1
 AtmWgt=   1.0078250   1.0078250  15.9949146   1.0078250   1.0078250  15.9949146   1.0078250   1.0078250  15.9949146   1.0078250
 NucSpn=           1           1           0           1           1           0           1           1           0           1
 AtZEff=  -0.0000000  -0.0000000  -0.0000000  -0.0000000  -0.0000000  -0.0000000  -0.0000000  -0.0000000  -0.0000000  -0.0000000
 NQMom=    0.0000000   0.0000000   0.0000000   0.0000000   0.0000000   0.0000000   0.0000000   0.0000000   0.0000000   0.0000000
 NMagM=    2.7928460   2.7928460   0.0000000   2.7928460   2.7928460   0.0000000   2.7928460   2.7928460   0.0000000   2.7928460
 AtZNuc=   1.0000000   1.0000000   8.0000000   1.0000000   1.0000000   8.0000000   1.0000000   1.0000000   8.0000000   1.0000000

  Atom        21          22          23          24          25          26          27          28          29          30
 IAtWgt=           1          16           1           1          16           1           1          16           1           1
 AtmWgt=   1.0078250  15.9949146   1.0078250   1.0078250  15.9949146   1.0078250   1.0078250  15.9949146   1.0078250   1.0078250
 NucSpn=           1           0           1           1           0           1           1           0           1           1
 AtZEff=  -0.0000000  -0.0000000  -0.0000000  -0.0000000  -0.0000000  -0.0000000  -0.0000000  -0.0000000  -0.0000000  -0.0000000
 NQMom=    0.0000000   0.0000000   0.0000000   0.0000000   0.0000000   0.0000000   0.0000000   0.0000000   0.0000000   0.0000000
 NMagM=    2.7928460   0.0000000   2.7928460   2.7928460   0.0000000   2.7928460   2.7928460   0.0000000   2.7928460   2.7928460
 AtZNuc=   1.0000000   8.0000000   1.0000000   1.0000000   8.0000000   1.0000000   1.0000000   8.0000000   1.0000000   1.0000000

  Atom        31          32          33          34          35          36          37          38          39          40
 IAtWgt=          16           1           1          16           1           1          16           1           1          16
 AtmWgt=  15.9949146   1.0078250   1.0078250  15.9949146   1.0078250   1.0078250  15.9949146   1.0078250   1.0078250  15.9949146
 NucSpn=           0           1           1           0           1           1           0           1           1           0
 AtZEff=  -0.0000000  -0.0000000  -0.0000000  -0.0000000  -0.0000000  -0.0000000  -0.0000000  -0.0000000  -0.0000000  -0.0000000
 NQMom=    0.0000000   0.0000000   0.0000000   0.0000000   0.0000000   0.0000000   0.0000000   0.0000000   0.0000000   0.0000000
 NMagM=    0.0000000   2.7928460   2.7928460   0.0000000   2.7928460   2.7928460   0.0000000   2.7928460   2.7928460   0.0000000
 AtZNuc=   8.0000000   1.0000000   1.0000000   8.0000000   1.0000000   1.0000000   8.0000000   1.0000000   1.0000000   8.0000000

  Atom        41          42          43          44          45          46          47          48          49          50
 IAtWgt=           1           1          16           1           1          16           1           1          16           1
 AtmWgt=   1.0078250   1.0078250  15.9949146   1.0078250   1.0078250  15.9949146   1.0078250   1.0078250  15.9949146   1.0078250
 NucSpn=           1           1           0           1           1           0           1           1           0           1
 AtZEff=  -0.0000000  -0.0000000  -0.0000000  -0.0000000  -0.0000000  -0.0000000  -0.0000000  -0.0000000  -0.0000000  -0.0000000
 NQMom=    0.0000000   0.0000000   0.0000000   0.0000000   0.0000000   0.0000000   0.0000000   0.0000000   0.0000000   0.0000000
 NMagM=    2.7928460   2.7928460   0.0000000   2.7928460   2.7928460   0.0000000   2.7928460   2.7928460   0.0000000   2.7928460
 AtZNuc=   1.0000000   1.0000000   8.0000000   1.0000000   1.0000000   8.0000000   1.0000000   1.0000000   8.0000000   1.0000000

  Atom        51          52          53          54          55          56          57          58          59          60
 IAtWgt=           1          16           1           1          16           1           1          16           1           1
 AtmWgt=   1.0078250  15.9949146   1.0078250   1.0078250  15.9949146   1.0078250   1.0078250  15.9949146   1.0078250   1.0078250
 NucSpn=           1           0           1           1           0           1           1           0           1           1
 AtZEff=  -0.0000000  -0.0000000  -0.0000000  -0.0000000  -0.0000000  -0.0000000  -0.0000000  -0.0000000  -0.0000000  -0.0000000
 NQMom=    0.0000000   0.0000000   0.0000000   0.0000000   0.0000000   0.0000000   0.0000000   0.0000000   0.0000000   0.0000000
 NMagM=    2.7928460   0.0000000   2.7928460   2.7928460   0.0000000   2.7928460   2.7928460   0.0000000   2.7928460   2.7928460
 AtZNuc=   1.0000000   8.0000000   1.0000000   1.0000000   8.0000000   1.0000000   1.0000000   8.0000000   1.0000000   1.0000000

  Atom        61          62          63          64          65          66          67          68          69
 IAtWgt=          16           1           1          16           1           1          16           1           1
 AtmWgt=  15.9949146   1.0078250   1.0078250  15.9949146   1.0078250   1.0078250  15.9949146   1.0078250   1.0078250
 NucSpn=           0           1           1           0           1           1           0           1           1
 AtZEff=  -0.0000000  -0.0000000  -0.0000000  -0.0000000  -0.0000000  -0.0000000  -0.0000000  -0.0000000  -0.0000000
 NQMom=    0.0000000   0.0000000   0.0000000   0.0000000   0.0000000   0.0000000   0.0000000   0.0000000   0.0000000
 NMagM=    0.0000000   2.7928460   2.7928460   0.0000000   2.7928460   2.7928460   0.0000000   2.7928460   2.7928460
 AtZNuc=   8.0000000   1.0000000   1.0000000   8.0000000   1.0000000   1.0000000   8.0000000   1.0000000   1.0000000
 Background charge distribution read from input stream:
 Point Charges:
 XYZ=   13.2120   16.4279   12.3165 Q=   -0.8340 A=    0.0000 R=    0.0000 C=    0.0000
 XYZ=   12.9698   16.5540   11.3991 Q=    0.4170 A=    0.0000 R=    0.0000 C=    0.0000
 XYZ=   12.4120   16.6220   12.8048 Q=    0.4170 A=    0.0000 R=    0.0000 C=    0.0000
 XYZ=   10.6804   11.5594    7.1101 Q=   -0.8340 A=    0.0000 R=    0.0000 C=    0.0000
 XYZ=   11.5749   11.7208    6.8101 Q=    0.4170 A=    0.0000 R=    0.0000 C=    0.0000
 XYZ=   10.7094   10.6814    7.4900 Q=    0.4170 A=    0.0000 R=    0.0000 C=    0.0000
 XYZ=   16.9154    9.2559   26.6066 Q=   -0.8340 A=    0.0000 R=    0.0000 C=    0.0000
 XYZ=   16.2382    9.7220   26.1163 Q=    0.4170 A=    0.0000 R=    0.0000 C=    0.0000
 XYZ=   17.7176    9.4010   26.1049 Q=    0.4170 A=    0.0000 R=    0.0000 C=    0.0000
 XYZ=   28.5091   19.6450   24.4815 Q=   -0.8340 A=    0.0000 R=    0.0000 C=    0.0000
 XYZ=   29.4646   19.6238   24.4275 Q=    0.4170 A=    0.0000 R=    0.0000 C=    0.0000
 XYZ=   28.3183   20.3726   25.0735 Q=    0.4170 A=    0.0000 R=    0.0000 C=    0.0000
 XYZ=   14.1710   19.0056   31.1404 Q=   -0.8340 A=    0.0000 R=    0.0000 C=    0.0000
 XYZ=   14.0078   19.8205   30.6654 Q=    0.4170 A=    0.0000 R=    0.0000 C=    0.0000
 XYZ=   14.0083   19.2258   32.0576 Q=    0.4170 A=    0.0000 R=    0.0000 C=    0.0000
 XYZ=   29.2299   18.6580   20.0299 Q=   -0.8340 A=    0.0000 R=    0.0000 C=    0.0000
 XYZ=   29.6477   19.1352   20.7468 Q=    0.4170 A=    0.0000 R=    0.0000 C=    0.0000
 XYZ=   29.5512   17.7608   20.1195 Q=    0.4170 A=    0.0000 R=    0.0000 C=    0.0000
 XYZ=   21.6305   23.5519    5.9842 Q=   -0.8340 A=    0.0000 R=    0.0000 C=    0.0000
 XYZ=   22.0726   24.1247    6.6109 Q=    0.4170 A=    0.0000 R=    0.0000 C=    0.0000
 XYZ=   21.6425   24.0415    5.1617 Q=    0.4170 A=    0.0000 R=    0.0000 C=    0.0000
 XYZ=   18.7046   19.7316    3.3690 Q=   -0.8340 A=    0.0000 R=    0.0000 C=    0.0000
 XYZ=   18.4431   20.5110    2.8787 Q=    0.4170 A=    0.0000 R=    0.0000 C=    0.0000
 XYZ=   17.8802   19.2942    3.5818 Q=    0.4170 A=    0.0000 R=    0.0000 C=    0.0000
 XYZ=    8.3298   13.3795   26.4287 Q=   -0.8340 A=    0.0000 R=    0.0000 C=    0.0000
 XYZ=    7.9337   14.0772   26.9508 Q=    0.4170 A=    0.0000 R=    0.0000 C=    0.0000
 XYZ=    9.1861   13.2351   26.8312 Q=    0.4170 A=    0.0000 R=    0.0000 C=    0.0000
 XYZ=    3.1740   17.5405   12.7374 Q=   -0.8340 A=    0.0000 R=    0.0000 C=    0.0000
 XYZ=    2.2351   17.3545   12.7354 Q=    0.4170 A=    0.0000 R=    0.0000 C=    0.0000
 XYZ=    3.2305   18.4914   12.6431 Q=    0.4170 A=    0.0000 R=    0.0000 C=    0.0000
 XYZ=   17.8822    5.9163   20.8780 Q=   -0.8340 A=    0.0000 R=    0.0000 C=    0.0000
 XYZ=   17.6378    6.2671   20.0216 Q=    0.4170 A=    0.0000 R=    0.0000 C=    0.0000
 XYZ=   17.9585    4.9725   20.7378 Q=    0.4170 A=    0.0000 R=    0.0000 C=    0.0000
 XYZ=   18.6742   25.0077   27.3587 Q=   -0.8340 A=    0.0000 R=    0.0000 C=    0.0000
 XYZ=   17.7873   24.7242   27.1367 Q=    0.4170 A=    0.0000 R=    0.0000 C=    0.0000
 XYZ=   19.2447   24.4338   26.8474 Q=    0.4170 A=    0.0000 R=    0.0000 C=    0.0000
 XYZ=    8.2948    8.2837   13.3768 Q=   -0.8340 A=    0.0000 R=    0.0000 C=    0.0000
 XYZ=    8.4219    8.6548   14.2499 Q=    0.4170 A=    0.0000 R=    0.0000 C=    0.0000
 XYZ=    8.9907    8.6726   12.8471 Q=    0.4170 A=    0.0000 R=    0.0000 C=    0.0000
 XYZ=   20.8623   26.8573   22.2103 Q=   -0.8340 A=    0.0000 R=    0.0000 C=    0.0000
 XYZ=   20.1556   27.4675   21.9993 Q=    0.4170 A=    0.0000 R=    0.0000 C=    0.0000
 XYZ=   21.6643   27.3443   22.0211 Q=    0.4170 A=    0.0000 R=    0.0000 C=    0.0000
 XYZ=   10.9295    4.6896   22.7200 Q=   -0.8340 A=    0.0000 R=    0.0000 C=    0.0000
 XYZ=   10.5174    4.1332   22.0590 Q=    0.4170 A=    0.0000 R=    0.0000 C=    0.0000
 XYZ=   11.4735    4.0912   23.2320 Q=    0.4170 A=    0.0000 R=    0.0000 C=    0.0000
 XYZ=   26.2787   10.2155    8.7420 Q=   -0.8340 A=    0.0000 R=    0.0000 C=    0.0000
 XYZ=   26.3293    9.2612    8.7964 Q=    0.4170 A=    0.0000 R=    0.0000 C=    0.0000
 XYZ=   26.0130   10.4921    9.6190 Q=    0.4170 A=    0.0000 R=    0.0000 C=    0.0000
 XYZ=    7.4128   19.0234   15.0132 Q=   -0.8340 A=    0.0000 R=    0.0000 C=    0.0000
 XYZ=    8.0026   19.5974   15.5020 Q=    0.4170 A=    0.0000 R=    0.0000 C=    0.0000
 XYZ=    6.5360   19.2840   15.2952 Q=    0.4170 A=    0.0000 R=    0.0000 C=    0.0000
 XYZ=   26.9891   13.0266   21.4764 Q=   -0.8340 A=    0.0000 R=    0.0000 C=    0.0000
 XYZ=   26.7868   13.1160   22.4077 Q=    0.4170 A=    0.0000 R=    0.0000 C=    0.0000
 XYZ=   27.1191   13.9246   21.1717 Q=    0.4170 A=    0.0000 R=    0.0000 C=    0.0000
 XYZ=   20.1106   12.9437    7.3798 Q=   -0.8340 A=    0.0000 R=    0.0000 C=    0.0000
 XYZ=   19.7425   13.2503    6.5511 Q=    0.4170 A=    0.0000 R=    0.0000 C=    0.0000
 XYZ=   20.4165   12.0562    7.1928 Q=    0.4170 A=    0.0000 R=    0.0000 C=    0.0000
 XYZ=   30.1995   17.6892   17.3219 Q=   -0.8340 A=    0.0000 R=    0.0000 C=    0.0000
 XYZ=   29.5377   18.1942   16.8494 Q=    0.4170 A=    0.0000 R=    0.0000 C=    0.0000
 XYZ=   29.8186   17.5457   18.1883 Q=    0.4170 A=    0.0000 R=    0.0000 C=    0.0000
 XYZ=   15.1292   14.7130    3.3626 Q=   -0.8340 A=    0.0000 R=    0.0000 C=    0.0000
 XYZ=   15.5038   13.8331    3.4051 Q=    0.4170 A=    0.0000 R=    0.0000 C=    0.0000
 XYZ=   14.2111   14.5721    3.1316 Q=    0.4170 A=    0.0000 R=    0.0000 C=    0.0000
 XYZ=   19.4699   13.9405    4.7888 Q=   -0.8340 A=    0.0000 R=    0.0000 C=    0.0000
 XYZ=   19.1801   13.2216    4.2272 Q=    0.4170 A=    0.0000 R=    0.0000 C=    0.0000
 XYZ=   20.0848   14.4353    4.2471 Q=    0.4170 A=    0.0000 R=    0.0000 C=    0.0000
 XYZ=   16.7781    6.0784   18.2195 Q=   -0.8340 A=    0.0000 R=    0.0000 C=    0.0000
 XYZ=   17.1618    5.7952   17.3895 Q=    0.4170 A=    0.0000 R=    0.0000 C=    0.0000
 XYZ=   16.5636    7.0011   18.0823 Q=    0.4170 A=    0.0000 R=    0.0000 C=    0.0000
 XYZ=    6.6308   15.1484   16.4565 Q=   -0.8340 A=    0.0000 R=    0.0000 C=    0.0000
 XYZ=    7.1605   15.8870   16.7565 Q=    0.4170 A=    0.0000 R=    0.0000 C=    0.0000
 XYZ=    6.0217   15.5308   15.8248 Q=    0.4170 A=    0.0000 R=    0.0000 C=    0.0000
 XYZ=    9.8277   10.6532   14.5703 Q=   -0.8340 A=    0.0000 R=    0.0000 C=    0.0000
 XYZ=    9.4455   10.2122   15.3291 Q=    0.4170 A=    0.0000 R=    0.0000 C=    0.0000
 XYZ=    9.7310   11.5862   14.7611 Q=    0.4170 A=    0.0000 R=    0.0000 C=    0.0000
 XYZ=   10.0565   16.6477   18.2612 Q=   -0.8340 A=    0.0000 R=    0.0000 C=    0.0000
 XYZ=   10.0139   16.0280   18.9895 Q=    0.4170 A=    0.0000 R=    0.0000 C=    0.0000
 XYZ=    9.5016   17.3781   18.5348 Q=    0.4170 A=    0.0000 R=    0.0000 C=    0.0000
 XYZ=   17.8042   10.6802    6.3675 Q=   -0.8340 A=    0.0000 R=    0.0000 C=    0.0000
 XYZ=   18.7199   10.8523    6.1480 Q=    0.4170 A=    0.0000 R=    0.0000 C=    0.0000
 XYZ=   17.8224    9.8450    6.8348 Q=    0.4170 A=    0.0000 R=    0.0000 C=    0.0000
 XYZ=   19.4950   20.4136   13.8352 Q=   -0.8340 A=    0.0000 R=    0.0000 C=    0.0000
 XYZ=   20.1522   21.1079   13.7873 Q=    0.4170 A=    0.0000 R=    0.0000 C=    0.0000
 XYZ=   18.6704   20.8740   13.9908 Q=    0.4170 A=    0.0000 R=    0.0000 C=    0.0000
 XYZ=   24.0496    6.0537   10.4086 Q=   -0.8340 A=    0.0000 R=    0.0000 C=    0.0000
 XYZ=   23.8945    6.6614   11.1318 Q=    0.4170 A=    0.0000 R=    0.0000 C=    0.0000
 XYZ=   23.6286    5.2396   10.6847 Q=    0.4170 A=    0.0000 R=    0.0000 C=    0.0000
 XYZ=   23.3490   19.7797   30.1942 Q=   -0.8340 A=    0.0000 R=    0.0000 C=    0.0000
 XYZ=   22.9007   19.2141   29.5654 Q=    0.4170 A=    0.0000 R=    0.0000 C=    0.0000
 XYZ=   22.7144   20.4683   30.3925 Q=    0.4170 A=    0.0000 R=    0.0000 C=    0.0000
 XYZ=    9.0147   10.0606   28.9902 Q=   -0.8340 A=    0.0000 R=    0.0000 C=    0.0000
 XYZ=    9.5472   10.7003   28.5175 Q=    0.4170 A=    0.0000 R=    0.0000 C=    0.0000
 XYZ=    8.2947   10.5728   29.3583 Q=    0.4170 A=    0.0000 R=    0.0000 C=    0.0000
 XYZ=   14.5130   27.5310   13.5307 Q=   -0.8340 A=    0.0000 R=    0.0000 C=    0.0000
 XYZ=   14.2855   27.7669   12.6314 Q=    0.4170 A=    0.0000 R=    0.0000 C=    0.0000
 XYZ=   15.1006   26.7807   13.4407 Q=    0.4170 A=    0.0000 R=    0.0000 C=    0.0000
 XYZ=    5.0498   23.9230   19.7593 Q=   -0.8340 A=    0.0000 R=    0.0000 C=    0.0000
 XYZ=    5.1078   24.8023   20.1331 Q=    0.4170 A=    0.0000 R=    0.0000 C=    0.0000
 XYZ=    4.3199   23.9722   19.1421 Q=    0.4170 A=    0.0000 R=    0.0000 C=    0.0000
 XYZ=    9.8776   23.5452    5.9990 Q=   -0.8340 A=    0.0000 R=    0.0000 C=    0.0000
 XYZ=   10.2980   23.9684    5.2504 Q=    0.4170 A=    0.0000 R=    0.0000 C=    0.0000
 XYZ=    9.0387   23.2341    5.6589 Q=    0.4170 A=    0.0000 R=    0.0000 C=    0.0000
 XYZ=   19.1535   25.3891    9.4129 Q=   -0.8340 A=    0.0000 R=    0.0000 C=    0.0000
 XYZ=   19.3791   24.6415    9.9666 Q=    0.4170 A=    0.0000 R=    0.0000 C=    0.0000
 XYZ=   18.5512   25.0314    8.7605 Q=    0.4170 A=    0.0000 R=    0.0000 C=    0.0000
 XYZ=   16.8075   23.6507   18.6115 Q=   -0.8340 A=    0.0000 R=    0.0000 C=    0.0000
 XYZ=   15.8903   23.4672   18.8147 Q=    0.4170 A=    0.0000 R=    0.0000 C=    0.0000
 XYZ=   17.0920   24.2471   19.3042 Q=    0.4170 A=    0.0000 R=    0.0000 C=    0.0000
 XYZ=   14.8432   17.2094   28.8759 Q=   -0.8340 A=    0.0000 R=    0.0000 C=    0.0000
 XYZ=   14.7762   17.8330   29.5989 Q=    0.4170 A=    0.0000 R=    0.0000 C=    0.0000
 XYZ=   14.5392   16.3802   29.2452 Q=    0.4170 A=    0.0000 R=    0.0000 C=    0.0000
 XYZ=   22.9619   28.1945   20.7798 Q=   -0.8340 A=    0.0000 R=    0.0000 C=    0.0000
 XYZ=   22.1672   28.7212   20.6945 Q=    0.4170 A=    0.0000 R=    0.0000 C=    0.0000
 XYZ=   23.0439   27.7458   19.9383 Q=    0.4170 A=    0.0000 R=    0.0000 C=    0.0000
 XYZ=   10.0415   17.1099   27.5687 Q=   -0.8340 A=    0.0000 R=    0.0000 C=    0.0000
 XYZ=   10.7690   16.9580   28.1720 Q=    0.4170 A=    0.0000 R=    0.0000 C=    0.0000
 XYZ=    9.3779   16.4703   27.8271 Q=    0.4170 A=    0.0000 R=    0.0000 C=    0.0000
 XYZ=   27.0398   13.3356   24.3120 Q=   -0.8340 A=    0.0000 R=    0.0000 C=    0.0000
 XYZ=   27.1670   13.4147   25.2574 Q=    0.4170 A=    0.0000 R=    0.0000 C=    0.0000
 XYZ=   27.9257   13.2741   23.9549 Q=    0.4170 A=    0.0000 R=    0.0000 C=    0.0000
 XYZ=    7.0838   19.4672   24.5389 Q=   -0.8340 A=    0.0000 R=    0.0000 C=    0.0000
 XYZ=    7.3601   19.4942   23.6228 Q=    0.4170 A=    0.0000 R=    0.0000 C=    0.0000
 XYZ=    6.1318   19.3763   24.4999 Q=    0.4170 A=    0.0000 R=    0.0000 C=    0.0000
 XYZ=   18.6149   12.1870    3.0779 Q=   -0.8340 A=    0.0000 R=    0.0000 C=    0.0000
 XYZ=   18.4320   12.3279    2.1490 Q=    0.4170 A=    0.0000 R=    0.0000 C=    0.0000
 XYZ=   19.4800   11.7777    3.0928 Q=    0.4170 A=    0.0000 R=    0.0000 C=    0.0000
 XYZ=   30.4816   11.8336   20.9908 Q=   -0.8340 A=    0.0000 R=    0.0000 C=    0.0000
 XYZ=   29.7896   12.3650   20.5971 Q=    0.4170 A=    0.0000 R=    0.0000 C=    0.0000
 XYZ=   30.4627   11.0125   20.4992 Q=    0.4170 A=    0.0000 R=    0.0000 C=    0.0000
 XYZ=   15.9631    9.5592   10.4564 Q=   -0.8340 A=    0.0000 R=    0.0000 C=    0.0000
 XYZ=   15.4503   10.3631   10.3732 Q=    0.4170 A=    0.0000 R=    0.0000 C=    0.0000
 XYZ=   15.3351    8.9044   10.7615 Q=    0.4170 A=    0.0000 R=    0.0000 C=    0.0000
 XYZ=   21.1199   13.2858   26.1148 Q=   -0.8340 A=    0.0000 R=    0.0000 C=    0.0000
 XYZ=   21.1871   12.8928   25.2446 Q=    0.4170 A=    0.0000 R=    0.0000 C=    0.0000
 XYZ=   22.0233   13.3313   26.4279 Q=    0.4170 A=    0.0000 R=    0.0000 C=    0.0000
 XYZ=   15.0167    2.3214   13.1179 Q=   -0.8340 A=    0.0000 R=    0.0000 C=    0.0000
 XYZ=   15.2932    1.6308   12.5155 Q=    0.4170 A=    0.0000 R=    0.0000 C=    0.0000
 XYZ=   14.4110    1.8873   13.7186 Q=    0.4170 A=    0.0000 R=    0.0000 C=    0.0000
 XYZ=   19.7925   10.7623   14.7686 Q=   -0.8340 A=    0.0000 R=    0.0000 C=    0.0000
 XYZ=   19.7522   11.1963   15.6208 Q=    0.4170 A=    0.0000 R=    0.0000 C=    0.0000
 XYZ=   20.4552   11.2516   14.2812 Q=    0.4170 A=    0.0000 R=    0.0000 C=    0.0000
 XYZ=   28.8796   20.8046   11.2026 Q=   -0.8340 A=    0.0000 R=    0.0000 C=    0.0000
 XYZ=   28.7978   20.5526   10.2828 Q=    0.4170 A=    0.0000 R=    0.0000 C=    0.0000
 XYZ=   29.6929   20.3920   11.4930 Q=    0.4170 A=    0.0000 R=    0.0000 C=    0.0000
 XYZ=   24.4748   25.0634   23.7241 Q=   -0.8340 A=    0.0000 R=    0.0000 C=    0.0000
 XYZ=   24.6979   25.2965   22.8229 Q=    0.4170 A=    0.0000 R=    0.0000 C=    0.0000
 XYZ=   24.5727   24.1118   23.7571 Q=    0.4170 A=    0.0000 R=    0.0000 C=    0.0000
 XYZ=   15.3326   28.3771   25.7635 Q=   -0.8340 A=    0.0000 R=    0.0000 C=    0.0000
 XYZ=   15.2464   27.5855   26.2949 Q=    0.4170 A=    0.0000 R=    0.0000 C=    0.0000
 XYZ=   16.2253   28.3396   25.4201 Q=    0.4170 A=    0.0000 R=    0.0000 C=    0.0000
 XYZ=   13.9211   12.6670   27.4650 Q=   -0.8340 A=    0.0000 R=    0.0000 C=    0.0000
 XYZ=   13.5975   13.4429   27.0072 Q=    0.4170 A=    0.0000 R=    0.0000 C=    0.0000
 XYZ=   14.3397   13.0111   28.2540 Q=    0.4170 A=    0.0000 R=    0.0000 C=    0.0000
 XYZ=   22.6343    8.7326   15.2492 Q=   -0.8340 A=    0.0000 R=    0.0000 C=    0.0000
 XYZ=   23.5539    8.4679   15.2701 Q=    0.4170 A=    0.0000 R=    0.0000 C=    0.0000
 XYZ=   22.5899    9.3913   14.5561 Q=    0.4170 A=    0.0000 R=    0.0000 C=    0.0000
 XYZ=   16.3124   21.7178    4.2194 Q=   -0.8340 A=    0.0000 R=    0.0000 C=    0.0000
 XYZ=   16.1395   22.3233    4.9404 Q=    0.4170 A=    0.0000 R=    0.0000 C=    0.0000
 XYZ=   15.5602   21.1259    4.2175 Q=    0.4170 A=    0.0000 R=    0.0000 C=    0.0000
 XYZ=   25.4318    9.8597   18.8883 Q=   -0.8340 A=    0.0000 R=    0.0000 C=    0.0000
 XYZ=   25.3053    9.5747   19.7933 Q=    0.4170 A=    0.0000 R=    0.0000 C=    0.0000
 XYZ=   25.3178    9.0642   18.3681 Q=    0.4170 A=    0.0000 R=    0.0000 C=    0.0000
 XYZ=   24.4673    7.5407   17.6086 Q=   -0.8340 A=    0.0000 R=    0.0000 C=    0.0000
 XYZ=   25.0339    6.8532   17.9587 Q=    0.4170 A=    0.0000 R=    0.0000 C=    0.0000
 XYZ=   23.6015    7.1356   17.5584 Q=    0.4170 A=    0.0000 R=    0.0000 C=    0.0000
 XYZ=   26.5845   20.1185   22.5897 Q=   -0.8340 A=    0.0000 R=    0.0000 C=    0.0000
 XYZ=   26.2931   20.9017   23.0565 Q=    0.4170 A=    0.0000 R=    0.0000 C=    0.0000
 XYZ=   27.3234   19.7935   23.1041 Q=    0.4170 A=    0.0000 R=    0.0000 C=    0.0000
 XYZ=    8.5406   25.6743   17.9583 Q=   -0.8340 A=    0.0000 R=    0.0000 C=    0.0000
 XYZ=    9.0355   26.3037   18.4828 Q=    0.4170 A=    0.0000 R=    0.0000 C=    0.0000
 XYZ=    8.1373   25.0908   18.6010 Q=    0.4170 A=    0.0000 R=    0.0000 C=    0.0000
 XYZ=   16.9831    6.5002   13.7766 Q=   -0.8340 A=    0.0000 R=    0.0000 C=    0.0000
 XYZ=   16.1215    6.0834   13.7704 Q=    0.4170 A=    0.0000 R=    0.0000 C=    0.0000
 XYZ=   17.1278    6.7386   14.6923 Q=    0.4170 A=    0.0000 R=    0.0000 C=    0.0000
 XYZ=   14.4929   23.1440    5.8985 Q=   -0.8340 A=    0.0000 R=    0.0000 C=    0.0000
 XYZ=   15.0367   22.7778    6.5959 Q=    0.4170 A=    0.0000 R=    0.0000 C=    0.0000
 XYZ=   13.6742   22.6506    5.9484 Q=    0.4170 A=    0.0000 R=    0.0000 C=    0.0000
 XYZ=   22.1835    5.9203   14.9780 Q=   -0.8340 A=    0.0000 R=    0.0000 C=    0.0000
 XYZ=   22.2255    6.8327   15.2644 Q=    0.4170 A=    0.0000 R=    0.0000 C=    0.0000
 XYZ=   23.0961    5.6738   14.8275 Q=    0.4170 A=    0.0000 R=    0.0000 C=    0.0000
 XYZ=    7.4139   16.8713   12.9011 Q=   -0.8340 A=    0.0000 R=    0.0000 C=    0.0000
 XYZ=    7.5493   17.6786   13.3974 Q=    0.4170 A=    0.0000 R=    0.0000 C=    0.0000
 XYZ=    7.9212   16.2112   13.3736 Q=    0.4170 A=    0.0000 R=    0.0000 C=    0.0000
 XYZ=   20.4692    6.0682    7.1235 Q=   -0.8340 A=    0.0000 R=    0.0000 C=    0.0000
 XYZ=   20.6900    5.4196    6.4551 Q=    0.4170 A=    0.0000 R=    0.0000 C=    0.0000
 XYZ=   19.9957    5.5726    7.7916 Q=    0.4170 A=    0.0000 R=    0.0000 C=    0.0000
 XYZ=   18.0352    7.7331   11.4524 Q=   -0.8340 A=    0.0000 R=    0.0000 C=    0.0000
 XYZ=   17.4046    8.2385   10.9394 Q=    0.4170 A=    0.0000 R=    0.0000 C=    0.0000
 XYZ=   17.5424    7.4425   12.2197 Q=    0.4170 A=    0.0000 R=    0.0000 C=    0.0000
 XYZ=   23.5302   10.5180    9.5991 Q=   -0.8340 A=    0.0000 R=    0.0000 C=    0.0000
 XYZ=   23.0305    9.7797    9.2506 Q=    0.4170 A=    0.0000 R=    0.0000 C=    0.0000
 XYZ=   23.9522   10.9055    8.8323 Q=    0.4170 A=    0.0000 R=    0.0000 C=    0.0000
 XYZ=   26.9561   22.8697   11.7149 Q=   -0.8340 A=    0.0000 R=    0.0000 C=    0.0000
 XYZ=   26.8618   23.0682   12.6465 Q=    0.4170 A=    0.0000 R=    0.0000 C=    0.0000
 XYZ=   27.4309   22.0388   11.6935 Q=    0.4170 A=    0.0000 R=    0.0000 C=    0.0000
 XYZ=   15.7784   23.0219   26.8043 Q=   -0.8340 A=    0.0000 R=    0.0000 C=    0.0000
 XYZ=   15.8167   22.6108   25.9407 Q=    0.4170 A=    0.0000 R=    0.0000 C=    0.0000
 XYZ=   15.1295   22.5088   27.2858 Q=    0.4170 A=    0.0000 R=    0.0000 C=    0.0000
 XYZ=    6.0655   19.5984   18.1296 Q=   -0.8340 A=    0.0000 R=    0.0000 C=    0.0000
 XYZ=    6.5182   20.4326   18.0057 Q=    0.4170 A=    0.0000 R=    0.0000 C=    0.0000
 XYZ=    5.5103   19.7382   18.8967 Q=    0.4170 A=    0.0000 R=    0.0000 C=    0.0000
 XYZ=   15.8707   28.5305   18.5404 Q=   -0.8340 A=    0.0000 R=    0.0000 C=    0.0000
 XYZ=   15.6751   28.6074   17.6065 Q=    0.4170 A=    0.0000 R=    0.0000 C=    0.0000
 XYZ=   15.0450   28.7410   18.9766 Q=    0.4170 A=    0.0000 R=    0.0000 C=    0.0000
 XYZ=    5.6204   11.7641   10.0341 Q=   -0.8340 A=    0.0000 R=    0.0000 C=    0.0000
 XYZ=    5.1947   12.5617   10.3486 Q=    0.4170 A=    0.0000 R=    0.0000 C=    0.0000
 XYZ=    5.4552   11.7598    9.0913 Q=    0.4170 A=    0.0000 R=    0.0000 C=    0.0000
 XYZ=   14.9141   18.8240    8.4425 Q=   -0.8340 A=    0.0000 R=    0.0000 C=    0.0000
 XYZ=   14.6782   19.7458    8.3381 Q=    0.4170 A=    0.0000 R=    0.0000 C=    0.0000
 XYZ=   15.7475   18.8414    8.9130 Q=    0.4170 A=    0.0000 R=    0.0000 C=    0.0000
 XYZ=   20.3530   12.7444   11.3586 Q=   -0.8340 A=    0.0000 R=    0.0000 C=    0.0000
 XYZ=   19.9611   13.3807   11.9568 Q=    0.4170 A=    0.0000 R=    0.0000 C=    0.0000
 XYZ=   19.7960   12.7718   10.5806 Q=    0.4170 A=    0.0000 R=    0.0000 C=    0.0000
 XYZ=   23.0420   21.6048   25.3879 Q=   -0.8340 A=    0.0000 R=    0.0000 C=    0.0000
 XYZ=   23.3131   20.7465   25.7135 Q=    0.4170 A=    0.0000 R=    0.0000 C=    0.0000
 XYZ=   22.3866   21.9045   26.0179 Q=    0.4170 A=    0.0000 R=    0.0000 C=    0.0000
 XYZ=   11.9211    6.3557   24.6658 Q=   -0.8340 A=    0.0000 R=    0.0000 C=    0.0000
 XYZ=   11.6030    5.9446   23.8620 Q=    0.4170 A=    0.0000 R=    0.0000 C=    0.0000
 XYZ=   12.0930    7.2643   24.4189 Q=    0.4170 A=    0.0000 R=    0.0000 C=    0.0000
 XYZ=   20.4901   29.3310   15.2843 Q=   -0.8340 A=    0.0000 R=    0.0000 C=    0.0000
 XYZ=   20.2773   30.2199   15.0002 Q=    0.4170 A=    0.0000 R=    0.0000 C=    0.0000
 XYZ=   19.6690   28.8473   15.1947 Q=    0.4170 A=    0.0000 R=    0.0000 C=    0.0000
 XYZ=   30.6786   10.6108   15.6125 Q=   -0.8340 A=    0.0000 R=    0.0000 C=    0.0000
 XYZ=   29.9169   10.1814   16.0019 Q=    0.4170 A=    0.0000 R=    0.0000 C=    0.0000
 XYZ=   31.3087    9.9035   15.4749 Q=    0.4170 A=    0.0000 R=    0.0000 C=    0.0000
 XYZ=   28.1725   12.4777    8.7530 Q=   -0.8340 A=    0.0000 R=    0.0000 C=    0.0000
 XYZ=   27.6028   11.9326    8.2103 Q=    0.4170 A=    0.0000 R=    0.0000 C=    0.0000
 XYZ=   28.2879   13.2821    8.2472 Q=    0.4170 A=    0.0000 R=    0.0000 C=    0.0000
 XYZ=   27.6332   20.9540   19.1960 Q=   -0.8340 A=    0.0000 R=    0.0000 C=    0.0000
 XYZ=   26.7578   20.7072   18.8976 Q=    0.4170 A=    0.0000 R=    0.0000 C=    0.0000
 XYZ=   28.1199   20.1301   19.2194 Q=    0.4170 A=    0.0000 R=    0.0000 C=    0.0000
 XYZ=   20.1925   17.6892    2.3277 Q=   -0.8340 A=    0.0000 R=    0.0000 C=    0.0000
 XYZ=   19.6818   18.4658    2.5563 Q=    0.4170 A=    0.0000 R=    0.0000 C=    0.0000
 XYZ=   19.5488   17.0727    1.9788 Q=    0.4170 A=    0.0000 R=    0.0000 C=    0.0000
 XYZ=   20.6381    8.6760   27.3321 Q=   -0.8340 A=    0.0000 R=    0.0000 C=    0.0000
 XYZ=   20.2841    8.3406   26.5084 Q=    0.4170 A=    0.0000 R=    0.0000 C=    0.0000
 XYZ=   21.5557    8.4036   27.3275 Q=    0.4170 A=    0.0000 R=    0.0000 C=    0.0000
 XYZ=   14.4069   21.9558   15.7733 Q=   -0.8340 A=    0.0000 R=    0.0000 C=    0.0000
 XYZ=   14.0591   22.3920   16.5512 Q=    0.4170 A=    0.0000 R=    0.0000 C=    0.0000
 XYZ=   13.6310   21.7001   15.2745 Q=    0.4170 A=    0.0000 R=    0.0000 C=    0.0000
 XYZ=   12.1181   30.2675   17.0538 Q=   -0.8340 A=    0.0000 R=    0.0000 C=    0.0000
 XYZ=   11.3269   30.5850   17.4891 Q=    0.4170 A=    0.0000 R=    0.0000 C=    0.0000
 XYZ=   12.1234   29.3254   17.2229 Q=    0.4170 A=    0.0000 R=    0.0000 C=    0.0000
 XYZ=   20.0999    3.7992   14.7387 Q=   -0.8340 A=    0.0000 R=    0.0000 C=    0.0000
 XYZ=   20.6590    4.5759   14.7578 Q=    0.4170 A=    0.0000 R=    0.0000 C=    0.0000
 XYZ=   19.4069    4.0177   14.1156 Q=    0.4170 A=    0.0000 R=    0.0000 C=    0.0000
 XYZ=   23.7375   18.3047   10.5313 Q=   -0.8340 A=    0.0000 R=    0.0000 C=    0.0000
 XYZ=   22.9789   18.6436   10.0559 Q=    0.4170 A=    0.0000 R=    0.0000 C=    0.0000
 XYZ=   23.4179   18.1610   11.4221 Q=    0.4170 A=    0.0000 R=    0.0000 C=    0.0000
 XYZ=   14.1599    4.9661   10.9278 Q=   -0.8340 A=    0.0000 R=    0.0000 C=    0.0000
 XYZ=   15.0389    4.6314   10.7503 Q=    0.4170 A=    0.0000 R=    0.0000 C=    0.0000
 XYZ=   13.6558    4.7437   10.1450 Q=    0.4170 A=    0.0000 R=    0.0000 C=    0.0000
 XYZ=   24.9344   12.1854   17.7741 Q=   -0.8340 A=    0.0000 R=    0.0000 C=    0.0000
 XYZ=   25.1314   11.2773   18.0039 Q=    0.4170 A=    0.0000 R=    0.0000 C=    0.0000
 XYZ=   24.7747   12.6162   18.6138 Q=    0.4170 A=    0.0000 R=    0.0000 C=    0.0000
 XYZ=    8.7782   28.6808   15.3835 Q=   -0.8340 A=    0.0000 R=    0.0000 C=    0.0000
 XYZ=    8.4856   28.8589   14.4897 Q=    0.4170 A=    0.0000 R=    0.0000 C=    0.0000
 XYZ=    9.6748   28.3609   15.2833 Q=    0.4170 A=    0.0000 R=    0.0000 C=    0.0000
 XYZ=   13.8263   25.9749   16.1541 Q=   -0.8340 A=    0.0000 R=    0.0000 C=    0.0000
 XYZ=   14.5108   26.6414   16.0957 Q=    0.4170 A=    0.0000 R=    0.0000 C=    0.0000
 XYZ=   14.1637   25.2389   15.6435 Q=    0.4170 A=    0.0000 R=    0.0000 C=    0.0000
 XYZ=   13.5543   10.2228   26.1763 Q=   -0.8340 A=    0.0000 R=    0.0000 C=    0.0000
 XYZ=   13.6415    9.6527   26.9402 Q=    0.4170 A=    0.0000 R=    0.0000 C=    0.0000
 XYZ=   13.6865   11.1064   26.5199 Q=    0.4170 A=    0.0000 R=    0.0000 C=    0.0000
 XYZ=   23.1339   11.0446    4.5278 Q=   -0.8340 A=    0.0000 R=    0.0000 C=    0.0000
 XYZ=   23.2725   10.6562    5.3916 Q=    0.4170 A=    0.0000 R=    0.0000 C=    0.0000
 XYZ=   24.0139   11.2541    4.2147 Q=    0.4170 A=    0.0000 R=    0.0000 C=    0.0000
 XYZ=    5.2588   24.7309   16.3109 Q=   -0.8340 A=    0.0000 R=    0.0000 C=    0.0000
 XYZ=    4.8799   25.3394   16.9453 Q=    0.4170 A=    0.0000 R=    0.0000 C=    0.0000
 XYZ=    5.9941   25.2099   15.9286 Q=    0.4170 A=    0.0000 R=    0.0000 C=    0.0000
 XYZ=   13.8485   21.5166   27.8168 Q=   -0.8340 A=    0.0000 R=    0.0000 C=    0.0000
 XYZ=   13.2850   21.0175   27.2256 Q=    0.4170 A=    0.0000 R=    0.0000 C=    0.0000
 XYZ=   13.5195   21.3117   28.6920 Q=    0.4170 A=    0.0000 R=    0.0000 C=    0.0000
 XYZ=    4.4389   19.7867   24.5361 Q=   -0.8340 A=    0.0000 R=    0.0000 C=    0.0000
 XYZ=    3.7404   20.2076   24.0350 Q=    0.4170 A=    0.0000 R=    0.0000 C=    0.0000
 XYZ=    4.6629   20.4222   25.2160 Q=    0.4170 A=    0.0000 R=    0.0000 C=    0.0000
 XYZ=   20.6115   18.0093   22.7601 Q=   -0.8340 A=    0.0000 R=    0.0000 C=    0.0000
 XYZ=   20.0328   18.5720   22.2457 Q=    0.4170 A=    0.0000 R=    0.0000 C=    0.0000
 XYZ=   21.1400   17.5488   22.1083 Q=    0.4170 A=    0.0000 R=    0.0000 C=    0.0000
 XYZ=   10.3041   26.0815   22.8682 Q=   -0.8340 A=    0.0000 R=    0.0000 C=    0.0000
 XYZ=   10.7480   26.8849   23.1399 Q=    0.4170 A=    0.0000 R=    0.0000 C=    0.0000
 XYZ=   10.3965   25.4915   23.6162 Q=    0.4170 A=    0.0000 R=    0.0000 C=    0.0000
 XYZ=    8.6052    8.7794   16.4328 Q=   -0.8340 A=    0.0000 R=    0.0000 C=    0.0000
 XYZ=    9.0465    9.2715   17.1251 Q=    0.4170 A=    0.0000 R=    0.0000 C=    0.0000
 XYZ=    7.6930    8.7290   16.7182 Q=    0.4170 A=    0.0000 R=    0.0000 C=    0.0000
 XYZ=   21.6818    8.1372    6.1809 Q=   -0.8340 A=    0.0000 R=    0.0000 C=    0.0000
 XYZ=   21.8207    7.9792    5.2471 Q=    0.4170 A=    0.0000 R=    0.0000 C=    0.0000
 XYZ=   21.2715    7.3341    6.5017 Q=    0.4170 A=    0.0000 R=    0.0000 C=    0.0000
 XYZ=    8.8741    5.9962   24.1980 Q=   -0.8340 A=    0.0000 R=    0.0000 C=    0.0000
 XYZ=    9.1804    6.8654   24.4565 Q=    0.4170 A=    0.0000 R=    0.0000 C=    0.0000
 XYZ=    9.4778    5.7247   23.5067 Q=    0.4170 A=    0.0000 R=    0.0000 C=    0.0000
 XYZ=   24.9088   22.2483   23.6838 Q=   -0.8340 A=    0.0000 R=    0.0000 C=    0.0000
 XYZ=   24.5269   22.0460   22.8297 Q=    0.4170 A=    0.0000 R=    0.0000 C=    0.0000
 XYZ=   24.2319   22.0013   24.3139 Q=    0.4170 A=    0.0000 R=    0.0000 C=    0.0000
 XYZ=   21.5998   19.6667    9.1974 Q=   -0.8340 A=    0.0000 R=    0.0000 C=    0.0000
 XYZ=   20.9472   20.3572    9.3140 Q=    0.4170 A=    0.0000 R=    0.0000 C=    0.0000
 XYZ=   21.3221   19.2051    8.4062 Q=    0.4170 A=    0.0000 R=    0.0000 C=    0.0000
 XYZ=   11.4332   11.4756   12.1153 Q=   -0.8340 A=    0.0000 R=    0.0000 C=    0.0000
 XYZ=   11.7043   12.3845   11.9860 Q=    0.4170 A=    0.0000 R=    0.0000 C=    0.0000
 XYZ=   11.9240   11.1859   12.8842 Q=    0.4170 A=    0.0000 R=    0.0000 C=    0.0000
 XYZ=   12.7221   21.6858   23.0422 Q=   -0.8340 A=    0.0000 R=    0.0000 C=    0.0000
 XYZ=   11.9699   21.3873   22.5311 Q=    0.4170 A=    0.0000 R=    0.0000 C=    0.0000
 XYZ=   13.3536   21.9845   22.3879 Q=    0.4170 A=    0.0000 R=    0.0000 C=    0.0000
 XYZ=    8.8578   12.6931    9.0980 Q=   -0.8340 A=    0.0000 R=    0.0000 C=    0.0000
 XYZ=    8.0075   12.8687    8.6951 Q=    0.4170 A=    0.0000 R=    0.0000 C=    0.0000
 XYZ=    9.3411   12.2015    8.4340 Q=    0.4170 A=    0.0000 R=    0.0000 C=    0.0000
 XYZ=   10.5637   18.5158   16.0802 Q=   -0.8340 A=    0.0000 R=    0.0000 C=    0.0000
 XYZ=   10.0953   19.1085   16.6680 Q=    0.4170 A=    0.0000 R=    0.0000 C=    0.0000
 XYZ=   10.5685   17.6762   16.5399 Q=    0.4170 A=    0.0000 R=    0.0000 C=    0.0000
 XYZ=   17.8903   16.2347    1.9491 Q=   -0.8340 A=    0.0000 R=    0.0000 C=    0.0000
 XYZ=   17.6859   15.4379    2.4386 Q=    0.4170 A=    0.0000 R=    0.0000 C=    0.0000
 XYZ=   17.6311   16.0367    1.0492 Q=    0.4170 A=    0.0000 R=    0.0000 C=    0.0000
 XYZ=   16.4920    6.7362   27.1290 Q=   -0.8340 A=    0.0000 R=    0.0000 C=    0.0000
 XYZ=   17.3129    6.5650   27.5906 Q=    0.4170 A=    0.0000 R=    0.0000 C=    0.0000
 XYZ=   16.6195    7.5933   26.7224 Q=    0.4170 A=    0.0000 R=    0.0000 C=    0.0000
 XYZ=    8.8703   22.9343   27.4204 Q=   -0.8340 A=    0.0000 R=    0.0000 C=    0.0000
 XYZ=    8.7397   23.0327   26.4773 Q=    0.4170 A=    0.0000 R=    0.0000 C=    0.0000
 XYZ=    9.2050   22.0436   27.5247 Q=    0.4170 A=    0.0000 R=    0.0000 C=    0.0000
 XYZ=   11.4929    4.9041   12.6411 Q=   -0.8340 A=    0.0000 R=    0.0000 C=    0.0000
 XYZ=   11.7292    5.4943   11.9255 Q=    0.4170 A=    0.0000 R=    0.0000 C=    0.0000
 XYZ=   12.0224    4.1209   12.4911 Q=    0.4170 A=    0.0000 R=    0.0000 C=    0.0000
 XYZ=    8.5618   12.4162   12.0754 Q=   -0.8340 A=    0.0000 R=    0.0000 C=    0.0000
 XYZ=    9.3112   11.8283   12.1705 Q=    0.4170 A=    0.0000 R=    0.0000 C=    0.0000
 XYZ=    8.4837   12.5546   11.1315 Q=    0.4170 A=    0.0000 R=    0.0000 C=    0.0000
 XYZ=   13.0402   25.6175    9.9547 Q=   -0.8340 A=    0.0000 R=    0.0000 C=    0.0000
 XYZ=   13.5617   26.4200    9.9669 Q=    0.4170 A=    0.0000 R=    0.0000 C=    0.0000
 XYZ=   12.5729   25.6476    9.1199 Q=    0.4170 A=    0.0000 R=    0.0000 C=    0.0000
 XYZ=   14.0445   23.8055   19.0165 Q=   -0.8340 A=    0.0000 R=    0.0000 C=    0.0000
 XYZ=   13.6306   24.0383   18.1854 Q=    0.4170 A=    0.0000 R=    0.0000 C=    0.0000
 XYZ=   13.9550   24.5902   19.5573 Q=    0.4170 A=    0.0000 R=    0.0000 C=    0.0000
 XYZ=   23.5244   26.7188   10.3287 Q=   -0.8340 A=    0.0000 R=    0.0000 C=    0.0000
 XYZ=   23.3979   27.5493    9.8698 Q=    0.4170 A=    0.0000 R=    0.0000 C=    0.0000
 XYZ=   22.6442   26.4582   10.6001 Q=    0.4170 A=    0.0000 R=    0.0000 C=    0.0000
 XYZ=   16.5402   23.8468   23.6388 Q=   -0.8340 A=    0.0000 R=    0.0000 C=    0.0000
 XYZ=   17.4540   23.6234   23.4621 Q=    0.4170 A=    0.0000 R=    0.0000 C=    0.0000
 XYZ=   16.1345   23.0170   23.8899 Q=    0.4170 A=    0.0000 R=    0.0000 C=    0.0000
 XYZ=   25.0737   20.8630    9.7883 Q=   -0.8340 A=    0.0000 R=    0.0000 C=    0.0000
 XYZ=   24.5046   20.1636   10.1095 Q=    0.4170 A=    0.0000 R=    0.0000 C=    0.0000
 XYZ=   24.9888   21.5595   10.4393 Q=    0.4170 A=    0.0000 R=    0.0000 C=    0.0000
 XYZ=   19.9331    9.4305    9.4483 Q=   -0.8340 A=    0.0000 R=    0.0000 C=    0.0000
 XYZ=   20.1870    9.5865   10.3579 Q=    0.4170 A=    0.0000 R=    0.0000 C=    0.0000
 XYZ=   20.7288    9.1017    9.0300 Q=    0.4170 A=    0.0000 R=    0.0000 C=    0.0000
 XYZ=   21.9500    3.8425   20.3443 Q=   -0.8340 A=    0.0000 R=    0.0000 C=    0.0000
 XYZ=   22.4502    4.6547   20.4239 Q=    0.4170 A=    0.0000 R=    0.0000 C=    0.0000
 XYZ=   22.0597    3.4092   21.1907 Q=    0.4170 A=    0.0000 R=    0.0000 C=    0.0000
 XYZ=   11.6098   16.3856   21.6649 Q=   -0.8340 A=    0.0000 R=    0.0000 C=    0.0000
 XYZ=   11.2204   15.7425   21.0724 Q=    0.4170 A=    0.0000 R=    0.0000 C=    0.0000
 XYZ=   11.3369   16.1037   22.5379 Q=    0.4170 A=    0.0000 R=    0.0000 C=    0.0000
 XYZ=   13.1413   13.5528   11.1315 Q=   -0.8340 A=    0.0000 R=    0.0000 C=    0.0000
 XYZ=   12.6216   14.3462   11.0031 Q=    0.4170 A=    0.0000 R=    0.0000 C=    0.0000
 XYZ=   13.9753   13.7398   10.7006 Q=    0.4170 A=    0.0000 R=    0.0000 C=    0.0000
 XYZ=   19.8100   12.1386   17.0693 Q=   -0.8340 A=    0.0000 R=    0.0000 C=    0.0000
 XYZ=   19.9714   11.9509   17.9940 Q=    0.4170 A=    0.0000 R=    0.0000 C=    0.0000
 XYZ=   20.4143   12.8508   16.8600 Q=    0.4170 A=    0.0000 R=    0.0000 C=    0.0000
 XYZ=   19.1184   24.0400   12.0851 Q=   -0.8340 A=    0.0000 R=    0.0000 C=    0.0000
 XYZ=   19.3618   23.9559   13.0070 Q=    0.4170 A=    0.0000 R=    0.0000 C=    0.0000
 XYZ=   19.5187   23.2809   11.6610 Q=    0.4170 A=    0.0000 R=    0.0000 C=    0.0000
 XYZ=   14.1803   18.7074   26.3080 Q=   -0.8340 A=    0.0000 R=    0.0000 C=    0.0000
 XYZ=   15.0022   18.6617   25.8196 Q=    0.4170 A=    0.0000 R=    0.0000 C=    0.0000
 XYZ=   14.3502   18.2141   27.1105 Q=    0.4170 A=    0.0000 R=    0.0000 C=    0.0000
 XYZ=   14.7043    5.1583   13.8239 Q=   -0.8340 A=    0.0000 R=    0.0000 C=    0.0000
 XYZ=   13.8894    5.4653   14.2212 Q=    0.4170 A=    0.0000 R=    0.0000 C=    0.0000
 XYZ=   14.4278    4.4969   13.1896 Q=    0.4170 A=    0.0000 R=    0.0000 C=    0.0000
 XYZ=   14.8764   22.6104   11.5312 Q=   -0.8340 A=    0.0000 R=    0.0000 C=    0.0000
 XYZ=   15.2276   23.4503   11.2356 Q=    0.4170 A=    0.0000 R=    0.0000 C=    0.0000
 XYZ=   13.9832   22.8093   11.8122 Q=    0.4170 A=    0.0000 R=    0.0000 C=    0.0000
 XYZ=   11.6610   16.9181    4.5388 Q=   -0.8340 A=    0.0000 R=    0.0000 C=    0.0000
 XYZ=   12.5020   17.3747    4.5188 Q=    0.4170 A=    0.0000 R=    0.0000 C=    0.0000
 XYZ=   11.8823   16.0179    4.7773 Q=    0.4170 A=    0.0000 R=    0.0000 C=    0.0000
 XYZ=   22.2642   16.4609    9.0016 Q=   -0.8340 A=    0.0000 R=    0.0000 C=    0.0000
 XYZ=   22.7331   16.4642    8.1672 Q=    0.4170 A=    0.0000 R=    0.0000 C=    0.0000
 XYZ=   22.9533   16.5102    9.6643 Q=    0.4170 A=    0.0000 R=    0.0000 C=    0.0000
 XYZ=    5.3553    7.6549   13.4590 Q=   -0.8340 A=    0.0000 R=    0.0000 C=    0.0000
 XYZ=    6.2698    7.7721   13.2018 Q=    0.4170 A=    0.0000 R=    0.0000 C=    0.0000
 XYZ=    5.3995    7.2822   14.3396 Q=    0.4170 A=    0.0000 R=    0.0000 C=    0.0000
 XYZ=   26.3941   26.8151   17.8741 Q=   -0.8340 A=    0.0000 R=    0.0000 C=    0.0000
 XYZ=   26.6450   25.9115   18.0656 Q=    0.4170 A=    0.0000 R=    0.0000 C=    0.0000
 XYZ=   26.4244   27.2576   18.7223 Q=    0.4170 A=    0.0000 R=    0.0000 C=    0.0000
 XYZ=   23.5026   12.6294   15.3541 Q=   -0.8340 A=    0.0000 R=    0.0000 C=    0.0000
 XYZ=   23.9378   12.4752   16.1927 Q=    0.4170 A=    0.0000 R=    0.0000 C=    0.0000
 XYZ=   24.0570   13.2715   14.9106 Q=    0.4170 A=    0.0000 R=    0.0000 C=    0.0000
 XYZ=   25.6193   16.5091   10.2407 Q=   -0.8340 A=    0.0000 R=    0.0000 C=    0.0000
 XYZ=   25.1675   17.3235   10.4622 Q=    0.4170 A=    0.0000 R=    0.0000 C=    0.0000
 XYZ=   26.2051   16.7474    9.5223 Q=    0.4170 A=    0.0000 R=    0.0000 C=    0.0000
 XYZ=   24.9926   22.3781   16.2367 Q=   -0.8340 A=    0.0000 R=    0.0000 C=    0.0000
 XYZ=   25.8886   22.0892   16.4096 Q=    0.4170 A=    0.0000 R=    0.0000 C=    0.0000
 XYZ=   24.6654   21.7647   15.5787 Q=    0.4170 A=    0.0000 R=    0.0000 C=    0.0000
 XYZ=   16.2563   26.5304   22.6647 Q=   -0.8340 A=    0.0000 R=    0.0000 C=    0.0000
 XYZ=   16.2450   25.7057   23.1505 Q=    0.4170 A=    0.0000 R=    0.0000 C=    0.0000
 XYZ=   15.8369   26.3228   21.8297 Q=    0.4170 A=    0.0000 R=    0.0000 C=    0.0000
 XYZ=   18.5561   19.9395   24.4386 Q=   -0.8340 A=    0.0000 R=    0.0000 C=    0.0000
 XYZ=   17.9240   19.2814   24.1495 Q=    0.4170 A=    0.0000 R=    0.0000 C=    0.0000
 XYZ=   18.1656   20.3173   25.2267 Q=    0.4170 A=    0.0000 R=    0.0000 C=    0.0000
 XYZ=    4.7789   19.8678   14.7400 Q=   -0.8340 A=    0.0000 R=    0.0000 C=    0.0000
 XYZ=    4.2988   19.9860   13.9204 Q=    0.4170 A=    0.0000 R=    0.0000 C=    0.0000
 XYZ=    4.7212   20.7177   15.1766 Q=    0.4170 A=    0.0000 R=    0.0000 C=    0.0000
 XYZ=   21.8853    9.4657   18.2801 Q=   -0.8340 A=    0.0000 R=    0.0000 C=    0.0000
 XYZ=   21.5998   10.2517   18.7459 Q=    0.4170 A=    0.0000 R=    0.0000 C=    0.0000
 XYZ=   21.8377    9.7047   17.3545 Q=    0.4170 A=    0.0000 R=    0.0000 C=    0.0000
 XYZ=    6.5619   16.8389   25.9117 Q=   -0.8340 A=    0.0000 R=    0.0000 C=    0.0000
 XYZ=    6.7702   17.7713   25.9699 Q=    0.4170 A=    0.0000 R=    0.0000 C=    0.0000
 XYZ=    6.8807   16.5752   25.0485 Q=    0.4170 A=    0.0000 R=    0.0000 C=    0.0000
 XYZ=   21.8509    6.5964   17.6768 Q=   -0.8340 A=    0.0000 R=    0.0000 C=    0.0000
 XYZ=   21.3505    6.6506   16.8626 Q=    0.4170 A=    0.0000 R=    0.0000 C=    0.0000
 XYZ=   21.6756    7.4256   18.1218 Q=    0.4170 A=    0.0000 R=    0.0000 C=    0.0000
 XYZ=   24.5558   12.0574   20.9954 Q=   -0.8340 A=    0.0000 R=    0.0000 C=    0.0000
 XYZ=   24.5268   11.1051   20.9029 Q=    0.4170 A=    0.0000 R=    0.0000 C=    0.0000
 XYZ=   25.4588   12.2463   21.2507 Q=    0.4170 A=    0.0000 R=    0.0000 C=    0.0000
 XYZ=   27.3454   17.5872    7.0024 Q=   -0.8340 A=    0.0000 R=    0.0000 C=    0.0000
 XYZ=   27.0022   17.7367    6.1214 Q=    0.4170 A=    0.0000 R=    0.0000 C=    0.0000
 XYZ=   27.4388   18.4638    7.3754 Q=    0.4170 A=    0.0000 R=    0.0000 C=    0.0000
 XYZ=   23.3677   22.8323    8.7432 Q=   -0.8340 A=    0.0000 R=    0.0000 C=    0.0000
 XYZ=   23.7106   22.8438    7.8496 Q=    0.4170 A=    0.0000 R=    0.0000 C=    0.0000
 XYZ=   23.7694   22.0616    9.1445 Q=    0.4170 A=    0.0000 R=    0.0000 C=    0.0000
 XYZ=   17.6233   20.8051   27.1054 Q=   -0.8340 A=    0.0000 R=    0.0000 C=    0.0000
 XYZ=   17.3168   20.4400   27.9355 Q=    0.4170 A=    0.0000 R=    0.0000 C=    0.0000
 XYZ=   17.0642   21.5678   26.9577 Q=    0.4170 A=    0.0000 R=    0.0000 C=    0.0000
 XYZ=    4.5514   14.7259   26.1669 Q=   -0.8340 A=    0.0000 R=    0.0000 C=    0.0000
 XYZ=    3.7392   15.0878   26.5214 Q=    0.4170 A=    0.0000 R=    0.0000 C=    0.0000
 XYZ=    5.1962   15.4236   26.2839 Q=    0.4170 A=    0.0000 R=    0.0000 C=    0.0000
 XYZ=   22.1059   17.8478   12.6560 Q=   -0.8340 A=    0.0000 R=    0.0000 C=    0.0000
 XYZ=   22.2569   16.9278   12.8728 Q=    0.4170 A=    0.0000 R=    0.0000 C=    0.0000
 XYZ=   21.2875   17.8461   12.1594 Q=    0.4170 A=    0.0000 R=    0.0000 C=    0.0000
 XYZ=   28.1656   16.6907   14.9404 Q=   -0.8340 A=    0.0000 R=    0.0000 C=    0.0000
 XYZ=   28.3779   17.6215   14.8708 Q=    0.4170 A=    0.0000 R=    0.0000 C=    0.0000
 XYZ=   27.6431   16.5048   14.1603 Q=    0.4170 A=    0.0000 R=    0.0000 C=    0.0000
 XYZ=   10.2669   15.5710   23.8405 Q=   -0.8340 A=    0.0000 R=    0.0000 C=    0.0000
 XYZ=    9.5353   16.1852   23.7797 Q=    0.4170 A=    0.0000 R=    0.0000 C=    0.0000
 XYZ=    9.8579   14.7063   23.8058 Q=    0.4170 A=    0.0000 R=    0.0000 C=    0.0000
 XYZ=   18.2416    8.4352   22.8710 Q=   -0.8340 A=    0.0000 R=    0.0000 C=    0.0000
 XYZ=   17.9127    7.8767   22.1667 Q=    0.4170 A=    0.0000 R=    0.0000 C=    0.0000
 XYZ=   17.5715    9.1109   22.9743 Q=    0.4170 A=    0.0000 R=    0.0000 C=    0.0000
 XYZ=   10.4132    2.6752   18.1980 Q=   -0.8340 A=    0.0000 R=    0.0000 C=    0.0000
 XYZ=   10.9765    1.9031   18.2502 Q=    0.4170 A=    0.0000 R=    0.0000 C=    0.0000
 XYZ=   10.4737    3.0755   19.0654 Q=    0.4170 A=    0.0000 R=    0.0000 C=    0.0000
 XYZ=   11.4765   27.9492   14.4108 Q=   -0.8340 A=    0.0000 R=    0.0000 C=    0.0000
 XYZ=   11.8402   27.2129   13.9189 Q=    0.4170 A=    0.0000 R=    0.0000 C=    0.0000
 XYZ=   12.1034   28.6601   14.2771 Q=    0.4170 A=    0.0000 R=    0.0000 C=    0.0000
 XYZ=   23.0320   26.5023   18.6076 Q=   -0.8340 A=    0.0000 R=    0.0000 C=    0.0000
 XYZ=   23.1547   26.7864   17.7019 Q=    0.4170 A=    0.0000 R=    0.0000 C=    0.0000
 XYZ=   23.7267   25.8603   18.7540 Q=    0.4170 A=    0.0000 R=    0.0000 C=    0.0000
 XYZ=   13.2123   16.8635    7.5013 Q=   -0.8340 A=    0.0000 R=    0.0000 C=    0.0000
 XYZ=   13.8233   17.4991    7.8740 Q=    0.4170 A=    0.0000 R=    0.0000 C=    0.0000
 XYZ=   13.7054   16.0436    7.4748 Q=    0.4170 A=    0.0000 R=    0.0000 C=    0.0000
 XYZ=   17.4186    3.8831   13.7635 Q=   -0.8340 A=    0.0000 R=    0.0000 C=    0.0000
 XYZ=   17.4032    4.8362   13.6768 Q=    0.4170 A=    0.0000 R=    0.0000 C=    0.0000
 XYZ=   16.5432    3.6035   13.4959 Q=    0.4170 A=    0.0000 R=    0.0000 C=    0.0000
 XYZ=   21.2489   16.0763    4.2529 Q=   -0.8340 A=    0.0000 R=    0.0000 C=    0.0000
 XYZ=   20.8829   16.7544    3.6851 Q=    0.4170 A=    0.0000 R=    0.0000 C=    0.0000
 XYZ=   22.1937   16.2285    4.2302 Q=    0.4170 A=    0.0000 R=    0.0000 C=    0.0000
 XYZ=   25.6217   25.4598   21.0688 Q=   -0.8340 A=    0.0000 R=    0.0000 C=    0.0000
 XYZ=   25.2672   25.1521   20.2345 Q=    0.4170 A=    0.0000 R=    0.0000 C=    0.0000
 XYZ=   25.8617   26.3720   20.9058 Q=    0.4170 A=    0.0000 R=    0.0000 C=    0.0000
 XYZ=   23.5525    6.7205   24.9525 Q=   -0.8340 A=    0.0000 R=    0.0000 C=    0.0000
 XYZ=   24.2842    6.1897   24.6378 Q=    0.4170 A=    0.0000 R=    0.0000 C=    0.0000
 XYZ=   22.7719    6.2594   24.6452 Q=    0.4170 A=    0.0000 R=    0.0000 C=    0.0000
 XYZ=   23.1419   19.9009   15.9156 Q=   -0.8340 A=    0.0000 R=    0.0000 C=    0.0000
 XYZ=   22.6279   19.0960   15.8511 Q=    0.4170 A=    0.0000 R=    0.0000 C=    0.0000
 XYZ=   22.6372   20.4614   16.5049 Q=    0.4170 A=    0.0000 R=    0.0000 C=    0.0000
 XYZ=   15.9321   24.9690   14.5157 Q=   -0.8340 A=    0.0000 R=    0.0000 C=    0.0000
 XYZ=   16.3709   25.2830   13.7251 Q=    0.4170 A=    0.0000 R=    0.0000 C=    0.0000
 XYZ=   16.6272   24.5558   15.0279 Q=    0.4170 A=    0.0000 R=    0.0000 C=    0.0000
 XYZ=   14.5389   14.5912    7.5311 Q=   -0.8340 A=    0.0000 R=    0.0000 C=    0.0000
 XYZ=   14.6499   14.4893    8.4764 Q=    0.4170 A=    0.0000 R=    0.0000 C=    0.0000
 XYZ=   14.8614   13.7691    7.1617 Q=    0.4170 A=    0.0000 R=    0.0000 C=    0.0000
 XYZ=   10.1276    6.4313   16.5033 Q=   -0.8340 A=    0.0000 R=    0.0000 C=    0.0000
 XYZ=    9.5102    7.1428   16.3332 Q=    0.4170 A=    0.0000 R=    0.0000 C=    0.0000
 XYZ=    9.5978    5.7461   16.9108 Q=    0.4170 A=    0.0000 R=    0.0000 C=    0.0000
 XYZ=   11.5651   14.2758    5.2576 Q=   -0.8340 A=    0.0000 R=    0.0000 C=    0.0000
 XYZ=   11.9557   13.6150    5.8295 Q=    0.4170 A=    0.0000 R=    0.0000 C=    0.0000
 XYZ=   11.8808   14.0522    4.3820 Q=    0.4170 A=    0.0000 R=    0.0000 C=    0.0000
 XYZ=   18.1597   24.7723    3.5583 Q=   -0.8340 A=    0.0000 R=    0.0000 C=    0.0000
 XYZ=   18.0177   24.1748    4.2925 Q=    0.4170 A=    0.0000 R=    0.0000 C=    0.0000
 XYZ=   17.8086   25.6103    3.8596 Q=    0.4170 A=    0.0000 R=    0.0000 C=    0.0000
 XYZ=   20.8616   18.6637   25.5525 Q=   -0.8340 A=    0.0000 R=    0.0000 C=    0.0000
 XYZ=   20.1599   18.8403   24.9259 Q=    0.4170 A=    0.0000 R=    0.0000 C=    0.0000
 XYZ=   21.6580   18.6445   25.0219 Q=    0.4170 A=    0.0000 R=    0.0000 C=    0.0000
 XYZ=   22.1626   16.9701   20.6381 Q=   -0.8340 A=    0.0000 R=    0.0000 C=    0.0000
 XYZ=   22.4041   16.1074   20.9752 Q=    0.4170 A=    0.0000 R=    0.0000 C=    0.0000
 XYZ=   22.9982   17.3929   20.4402 Q=    0.4170 A=    0.0000 R=    0.0000 C=    0.0000
 XYZ=   13.5313   30.7652   12.8636 Q=   -0.8340 A=    0.0000 R=    0.0000 C=    0.0000
 XYZ=   14.3729   30.5753   12.4491 Q=    0.4170 A=    0.0000 R=    0.0000 C=    0.0000
 XYZ=   13.7295   30.8121   13.7988 Q=    0.4170 A=    0.0000 R=    0.0000 C=    0.0000
 XYZ=    8.7080   25.5159   10.4558 Q=   -0.8340 A=    0.0000 R=    0.0000 C=    0.0000
 XYZ=    7.7813   25.7358   10.3602 Q=    0.4170 A=    0.0000 R=    0.0000 C=    0.0000
 XYZ=    9.1539   26.0725    9.8174 Q=    0.4170 A=    0.0000 R=    0.0000 C=    0.0000
 XYZ=    9.1562   14.7437   13.7522 Q=   -0.8340 A=    0.0000 R=    0.0000 C=    0.0000
 XYZ=    9.1461   14.0582   14.4202 Q=    0.4170 A=    0.0000 R=    0.0000 C=    0.0000
 XYZ=    8.7199   14.3492   12.9970 Q=    0.4170 A=    0.0000 R=    0.0000 C=    0.0000
 XYZ=   13.4552   29.1342   19.8753 Q=   -0.8340 A=    0.0000 R=    0.0000 C=    0.0000
 XYZ=   12.9732   28.4547   19.4039 Q=    0.4170 A=    0.0000 R=    0.0000 C=    0.0000
 XYZ=   12.9215   29.3141   20.6492 Q=    0.4170 A=    0.0000 R=    0.0000 C=    0.0000
 XYZ=   15.2481   11.9603    6.9895 Q=   -0.8340 A=    0.0000 R=    0.0000 C=    0.0000
 XYZ=   15.1559   11.9004    7.9403 Q=    0.4170 A=    0.0000 R=    0.0000 C=    0.0000
 XYZ=   16.1554   11.7065    6.8199 Q=    0.4170 A=    0.0000 R=    0.0000 C=    0.0000
 XYZ=    1.6528   13.6071   17.0966 Q=   -0.8340 A=    0.0000 R=    0.0000 C=    0.0000
 XYZ=    1.3825   13.0297   16.3826 Q=    0.4170 A=    0.0000 R=    0.0000 C=    0.0000
 XYZ=    2.1651   14.2936   16.6693 Q=    0.4170 A=    0.0000 R=    0.0000 C=    0.0000
 XYZ=   15.0327   18.4373    3.8255 Q=   -0.8340 A=    0.0000 R=    0.0000 C=    0.0000
 XYZ=   14.4704   19.0688    4.2742 Q=    0.4170 A=    0.0000 R=    0.0000 C=    0.0000
 XYZ=   15.3900   17.8931    4.5273 Q=    0.4170 A=    0.0000 R=    0.0000 C=    0.0000
 XYZ=   17.0006   13.0602   24.2415 Q=   -0.8340 A=    0.0000 R=    0.0000 C=    0.0000
 XYZ=   17.3548   13.2591   25.1082 Q=    0.4170 A=    0.0000 R=    0.0000 C=    0.0000
 XYZ=   16.1767   13.5459   24.2017 Q=    0.4170 A=    0.0000 R=    0.0000 C=    0.0000
 XYZ=   15.4926   21.5137   24.4377 Q=   -0.8340 A=    0.0000 R=    0.0000 C=    0.0000
 XYZ=   15.7127   20.5856   24.5170 Q=    0.4170 A=    0.0000 R=    0.0000 C=    0.0000
 XYZ=   14.7572   21.5345   23.8253 Q=    0.4170 A=    0.0000 R=    0.0000 C=    0.0000
 XYZ=    2.7281   11.1376   11.4907 Q=   -0.8340 A=    0.0000 R=    0.0000 C=    0.0000
 XYZ=    2.5298   11.9612   11.0451 Q=    0.4170 A=    0.0000 R=    0.0000 C=    0.0000
 XYZ=    3.3185   11.3857   12.2021 Q=    0.4170 A=    0.0000 R=    0.0000 C=    0.0000
 XYZ=   24.3628   18.6900   23.7568 Q=   -0.8340 A=    0.0000 R=    0.0000 C=    0.0000
 XYZ=   25.1695   19.0301   23.3697 Q=    0.4170 A=    0.0000 R=    0.0000 C=    0.0000
 XYZ=   24.4600   17.7386   23.7171 Q=    0.4170 A=    0.0000 R=    0.0000 C=    0.0000
 XYZ=   28.1310   23.3725   24.2761 Q=   -0.8340 A=    0.0000 R=    0.0000 C=    0.0000
 XYZ=   27.9952   22.7488   23.5628 Q=    0.4170 A=    0.0000 R=    0.0000 C=    0.0000
 XYZ=   27.8071   22.9204   25.0551 Q=    0.4170 A=    0.0000 R=    0.0000 C=    0.0000
 XYZ=   21.2188    9.2153   20.9430 Q=   -0.8340 A=    0.0000 R=    0.0000 C=    0.0000
 XYZ=   21.3421    8.6937   21.7361 Q=    0.4170 A=    0.0000 R=    0.0000 C=    0.0000
 XYZ=   21.5829    8.6751   20.2416 Q=    0.4170 A=    0.0000 R=    0.0000 C=    0.0000
 XYZ=   18.5898   22.9437    5.5135 Q=   -0.8340 A=    0.0000 R=    0.0000 C=    0.0000
 XYZ=   18.5693   22.0548    5.8678 Q=    0.4170 A=    0.0000 R=    0.0000 C=    0.0000
 XYZ=   19.5041   23.2145    5.5975 Q=    0.4170 A=    0.0000 R=    0.0000 C=    0.0000
 XYZ=   18.5798   14.1916   26.3297 Q=   -0.8340 A=    0.0000 R=    0.0000 C=    0.0000
 XYZ=   19.5175   14.0178   26.2481 Q=    0.4170 A=    0.0000 R=    0.0000 C=    0.0000
 XYZ=   18.4809   14.5693   27.2037 Q=    0.4170 A=    0.0000 R=    0.0000 C=    0.0000
 XYZ=   26.2055   16.2573   22.8094 Q=   -0.8340 A=    0.0000 R=    0.0000 C=    0.0000
 XYZ=   26.1111   16.6346   21.9348 Q=    0.4170 A=    0.0000 R=    0.0000 C=    0.0000
 XYZ=   27.0173   15.7520   22.7665 Q=    0.4170 A=    0.0000 R=    0.0000 C=    0.0000
 XYZ=   14.9661   25.6696    7.1056 Q=   -0.8340 A=    0.0000 R=    0.0000 C=    0.0000
 XYZ=   14.5752   26.4443    6.7015 Q=    0.4170 A=    0.0000 R=    0.0000 C=    0.0000
 XYZ=   14.4225   24.9416    6.8042 Q=    0.4170 A=    0.0000 R=    0.0000 C=    0.0000
 XYZ=   28.7324   16.5607    8.9899 Q=   -0.8340 A=    0.0000 R=    0.0000 C=    0.0000
 XYZ=   28.1041   16.6056    8.2692 Q=    0.4170 A=    0.0000 R=    0.0000 C=    0.0000
 XYZ=   28.8473   17.4703    9.2651 Q=    0.4170 A=    0.0000 R=    0.0000 C=    0.0000
 XYZ=   25.4768    8.5642   15.1175 Q=   -0.8340 A=    0.0000 R=    0.0000 C=    0.0000
 XYZ=   25.8574    7.7195   14.8771 Q=    0.4170 A=    0.0000 R=    0.0000 C=    0.0000
 XYZ=   25.3636    8.5150   16.0667 Q=    0.4170 A=    0.0000 R=    0.0000 C=    0.0000
 XYZ=   11.1043   19.5599   29.7470 Q=   -0.8340 A=    0.0000 R=    0.0000 C=    0.0000
 XYZ=   10.9923   20.0709   30.5485 Q=    0.4170 A=    0.0000 R=    0.0000 C=    0.0000
 XYZ=   11.1217   18.6498   30.0430 Q=    0.4170 A=    0.0000 R=    0.0000 C=    0.0000
 XYZ=   23.3799   21.3112   21.5951 Q=   -0.8340 A=    0.0000 R=    0.0000 C=    0.0000
 XYZ=   22.4977   21.4304   21.9469 Q=    0.4170 A=    0.0000 R=    0.0000 C=    0.0000
 XYZ=   23.5119   20.3632   21.5946 Q=    0.4170 A=    0.0000 R=    0.0000 C=    0.0000
 XYZ=   15.9328   19.4594    1.3014 Q=   -0.8340 A=    0.0000 R=    0.0000 C=    0.0000
 XYZ=   15.0436   19.7869    1.1661 Q=    0.4170 A=    0.0000 R=    0.0000 C=    0.0000
 XYZ=   15.9218   19.0935    2.1858 Q=    0.4170 A=    0.0000 R=    0.0000 C=    0.0000
 XYZ=   15.9373    7.1760    8.3593 Q=   -0.8340 A=    0.0000 R=    0.0000 C=    0.0000
 XYZ=   16.7254    7.7183    8.3265 Q=    0.4170 A=    0.0000 R=    0.0000 C=    0.0000
 XYZ=   16.1707    6.3841    7.8749 Q=    0.4170 A=    0.0000 R=    0.0000 C=    0.0000
 XYZ=   14.6047   25.0146    3.9449 Q=   -0.8340 A=    0.0000 R=    0.0000 C=    0.0000
 XYZ=   14.5535   24.4456    4.7129 Q=    0.4170 A=    0.0000 R=    0.0000 C=    0.0000
 XYZ=   14.7708   24.4181    3.2150 Q=    0.4170 A=    0.0000 R=    0.0000 C=    0.0000
 XYZ=   22.7386   13.1490   22.9825 Q=   -0.8340 A=    0.0000 R=    0.0000 C=    0.0000
 XYZ=   23.2114   12.7058   22.2780 Q=    0.4170 A=    0.0000 R=    0.0000 C=    0.0000
 XYZ=   22.0959   12.5059   23.2818 Q=    0.4170 A=    0.0000 R=    0.0000 C=    0.0000
 XYZ=   21.8585   26.8884   15.2623 Q=   -0.8340 A=    0.0000 R=    0.0000 C=    0.0000
 XYZ=   21.5296   27.7866   15.2964 Q=    0.4170 A=    0.0000 R=    0.0000 C=    0.0000
 XYZ=   22.7974   26.9826   15.1014 Q=    0.4170 A=    0.0000 R=    0.0000 C=    0.0000
 XYZ=   21.8682    3.7690   17.6406 Q=   -0.8340 A=    0.0000 R=    0.0000 C=    0.0000
 XYZ=   22.0246    3.5548   18.5603 Q=    0.4170 A=    0.0000 R=    0.0000 C=    0.0000
 XYZ=   22.0110    4.7139   17.5865 Q=    0.4170 A=    0.0000 R=    0.0000 C=    0.0000
 XYZ=    5.3548    6.7797   15.9046 Q=   -0.8340 A=    0.0000 R=    0.0000 C=    0.0000
 XYZ=    5.3862    7.3121   16.6995 Q=    0.4170 A=    0.0000 R=    0.0000 C=    0.0000
 XYZ=    5.8972    6.0169   16.1052 Q=    0.4170 A=    0.0000 R=    0.0000 C=    0.0000
 XYZ=    7.3268   25.8341   15.1314 Q=   -0.8340 A=    0.0000 R=    0.0000 C=    0.0000
 XYZ=    7.8123   26.1750   14.3802 Q=    0.4170 A=    0.0000 R=    0.0000 C=    0.0000
 XYZ=    7.6886   26.3026   15.8836 Q=    0.4170 A=    0.0000 R=    0.0000 C=    0.0000
 XYZ=   25.9100   14.8609   17.5838 Q=   -0.8340 A=    0.0000 R=    0.0000 C=    0.0000
 XYZ=   25.8677   13.9088   17.4950 Q=    0.4170 A=    0.0000 R=    0.0000 C=    0.0000
 XYZ=   26.6033   15.1277   16.9802 Q=    0.4170 A=    0.0000 R=    0.0000 C=    0.0000
 XYZ=   11.7078   11.6481   29.7405 Q=   -0.8340 A=    0.0000 R=    0.0000 C=    0.0000
 XYZ=   12.3149   10.9549   29.4816 Q=    0.4170 A=    0.0000 R=    0.0000 C=    0.0000
 XYZ=   12.0080   11.9185   30.6082 Q=    0.4170 A=    0.0000 R=    0.0000 C=    0.0000
 XYZ=   11.9821   25.7722   12.6195 Q=   -0.8340 A=    0.0000 R=    0.0000 C=    0.0000
 XYZ=   12.4948   25.9412   11.8290 Q=    0.4170 A=    0.0000 R=    0.0000 C=    0.0000
 XYZ=   12.0935   24.8355   12.7821 Q=    0.4170 A=    0.0000 R=    0.0000 C=    0.0000
 XYZ=    6.1615    9.1770   17.5786 Q=   -0.8340 A=    0.0000 R=    0.0000 C=    0.0000
 XYZ=    5.2923    9.5771   17.6050 Q=    0.4170 A=    0.0000 R=    0.0000 C=    0.0000
 XYZ=    6.6569    9.6341   18.2582 Q=    0.4170 A=    0.0000 R=    0.0000 C=    0.0000
 XYZ=   11.6623   25.5976    7.4249 Q=   -0.8340 A=    0.0000 R=    0.0000 C=    0.0000
 XYZ=   11.3400   26.3382    6.9112 Q=    0.4170 A=    0.0000 R=    0.0000 C=    0.0000
 XYZ=   11.0768   24.8752    7.1979 Q=    0.4170 A=    0.0000 R=    0.0000 C=    0.0000
 XYZ=   17.6830   22.8296   30.6198 Q=   -0.8340 A=    0.0000 R=    0.0000 C=    0.0000
 XYZ=   17.3689   22.5221   31.4701 Q=    0.4170 A=    0.0000 R=    0.0000 C=    0.0000
 XYZ=   18.4088   22.2434   30.4057 Q=    0.4170 A=    0.0000 R=    0.0000 C=    0.0000
 XYZ=   24.7110   23.2592    6.3920 Q=   -0.8340 A=    0.0000 R=    0.0000 C=    0.0000
 XYZ=   24.8061   23.9313    5.7172 Q=    0.4170 A=    0.0000 R=    0.0000 C=    0.0000
 XYZ=   24.5790   22.4462    5.9042 Q=    0.4170 A=    0.0000 R=    0.0000 C=    0.0000
 XYZ=   20.3350   24.8448   19.0236 Q=   -0.8340 A=    0.0000 R=    0.0000 C=    0.0000
 XYZ=   19.6434   25.4609   19.2651 Q=    0.4170 A=    0.0000 R=    0.0000 C=    0.0000
 XYZ=   21.0894   25.1131   19.5482 Q=    0.4170 A=    0.0000 R=    0.0000 C=    0.0000
 XYZ=    8.7597   20.5946    6.8823 Q=   -0.8340 A=    0.0000 R=    0.0000 C=    0.0000
 XYZ=    9.4498   20.7619    7.5241 Q=    0.4170 A=    0.0000 R=    0.0000 C=    0.0000
 XYZ=    8.0593   21.2026    7.1190 Q=    0.4170 A=    0.0000 R=    0.0000 C=    0.0000
 XYZ=   12.9438    8.4712   13.6711 Q=   -0.8340 A=    0.0000 R=    0.0000 C=    0.0000
 XYZ=   12.7124    7.6345   14.0742 Q=    0.4170 A=    0.0000 R=    0.0000 C=    0.0000
 XYZ=   12.2893    8.5957   12.9839 Q=    0.4170 A=    0.0000 R=    0.0000 C=    0.0000
 XYZ=   24.6515   27.5015   13.0050 Q=   -0.8340 A=    0.0000 R=    0.0000 C=    0.0000
 XYZ=   23.7485   27.4957   12.6877 Q=    0.4170 A=    0.0000 R=    0.0000 C=    0.0000
 XYZ=   25.1659   27.1655   12.2711 Q=    0.4170 A=    0.0000 R=    0.0000 C=    0.0000
 XYZ=   15.7521    3.4127   23.7386 Q=   -0.8340 A=    0.0000 R=    0.0000 C=    0.0000
 XYZ=   15.6226    3.7760   24.6147 Q=    0.4170 A=    0.0000 R=    0.0000 C=    0.0000
 XYZ=   16.4942    3.9018   23.3832 Q=    0.4170 A=    0.0000 R=    0.0000 C=    0.0000
 XYZ=   18.5953   29.0081   17.8900 Q=   -0.8340 A=    0.0000 R=    0.0000 C=    0.0000
 XYZ=   17.6870   28.7083   17.9267 Q=    0.4170 A=    0.0000 R=    0.0000 C=    0.0000
 XYZ=   18.5495   29.8600   17.4558 Q=    0.4170 A=    0.0000 R=    0.0000 C=    0.0000
 XYZ=   18.4801    8.5108    4.1382 Q=   -0.8340 A=    0.0000 R=    0.0000 C=    0.0000
 XYZ=   19.1538    8.8676    3.5593 Q=    0.4170 A=    0.0000 R=    0.0000 C=    0.0000
 XYZ=   18.3029    9.2144    4.7625 Q=    0.4170 A=    0.0000 R=    0.0000 C=    0.0000
 XYZ=    8.7107   12.6928    5.5825 Q=   -0.8340 A=    0.0000 R=    0.0000 C=    0.0000
 XYZ=    9.5328   12.4641    6.0161 Q=    0.4170 A=    0.0000 R=    0.0000 C=    0.0000
 XYZ=    8.8161   12.3757    4.6856 Q=    0.4170 A=    0.0000 R=    0.0000 C=    0.0000
 XYZ=   10.3106   20.9465    9.0211 Q=   -0.8340 A=    0.0000 R=    0.0000 C=    0.0000
 XYZ=   10.8061   21.6981    9.3461 Q=    0.4170 A=    0.0000 R=    0.0000 C=    0.0000
 XYZ=   10.5120   20.2418    9.6368 Q=    0.4170 A=    0.0000 R=    0.0000 C=    0.0000
 XYZ=   12.1225   21.5138    6.6839 Q=   -0.8340 A=    0.0000 R=    0.0000 C=    0.0000
 XYZ=   11.5958   22.3129    6.6681 Q=    0.4170 A=    0.0000 R=    0.0000 C=    0.0000
 XYZ=   11.6041   20.8949    7.1981 Q=    0.4170 A=    0.0000 R=    0.0000 C=    0.0000
 XYZ=   15.6617    6.7322   22.3884 Q=   -0.8340 A=    0.0000 R=    0.0000 C=    0.0000
 XYZ=   15.8374    6.4270   23.2785 Q=    0.4170 A=    0.0000 R=    0.0000 C=    0.0000
 XYZ=   16.3462    6.3267   21.8562 Q=    0.4170 A=    0.0000 R=    0.0000 C=    0.0000
 XYZ=    6.4613   19.5292   27.6855 Q=   -0.8340 A=    0.0000 R=    0.0000 C=    0.0000
 XYZ=    7.3850   19.3326   27.5293 Q=    0.4170 A=    0.0000 R=    0.0000 C=    0.0000
 XYZ=    6.3806   20.4650   27.5010 Q=    0.4170 A=    0.0000 R=    0.0000 C=    0.0000
 XYZ=   20.0557   18.3825    7.0554 Q=   -0.8340 A=    0.0000 R=    0.0000 C=    0.0000
 XYZ=   19.4531   18.0188    6.4067 Q=    0.4170 A=    0.0000 R=    0.0000 C=    0.0000
 XYZ=   20.0246   17.7639    7.7853 Q=    0.4170 A=    0.0000 R=    0.0000 C=    0.0000
 XYZ=   19.3155   23.2718   23.0590 Q=   -0.8340 A=    0.0000 R=    0.0000 C=    0.0000
 XYZ=   19.6784   23.8095   22.3551 Q=    0.4170 A=    0.0000 R=    0.0000 C=    0.0000
 XYZ=   19.8322   22.4663   23.0364 Q=    0.4170 A=    0.0000 R=    0.0000 C=    0.0000
 XYZ=   20.8933   10.6195    6.3246 Q=   -0.8340 A=    0.0000 R=    0.0000 C=    0.0000
 XYZ=   21.1569    9.7311    6.5644 Q=    0.4170 A=    0.0000 R=    0.0000 C=    0.0000
 XYZ=   21.4101   10.8207    5.5444 Q=    0.4170 A=    0.0000 R=    0.0000 C=    0.0000
 XYZ=   27.8208    8.4663   11.3127 Q=   -0.8340 A=    0.0000 R=    0.0000 C=    0.0000
 XYZ=   28.7066    8.3658   10.9642 Q=    0.4170 A=    0.0000 R=    0.0000 C=    0.0000
 XYZ=   27.8317    9.3150   11.7551 Q=    0.4170 A=    0.0000 R=    0.0000 C=    0.0000
 XYZ=   16.1879   10.2029   23.2480 Q=   -0.8340 A=    0.0000 R=    0.0000 C=    0.0000
 XYZ=   15.5864   10.4456   22.5441 Q=    0.4170 A=    0.0000 R=    0.0000 C=    0.0000
 XYZ=   16.2561   10.9905   23.7876 Q=    0.4170 A=    0.0000 R=    0.0000 C=    0.0000
 XYZ=    6.6333   16.7413   10.1921 Q=   -0.8340 A=    0.0000 R=    0.0000 C=    0.0000
 XYZ=    6.8646   16.8922   11.1086 Q=    0.4170 A=    0.0000 R=    0.0000 C=    0.0000
 XYZ=    7.2349   17.2982    9.6980 Q=    0.4170 A=    0.0000 R=    0.0000 C=    0.0000
 XYZ=   27.7033   22.7929   21.2562 Q=   -0.8340 A=    0.0000 R=    0.0000 C=    0.0000
 XYZ=   26.8771   23.1503   21.5816 Q=    0.4170 A=    0.0000 R=    0.0000 C=    0.0000
 XYZ=   27.4439   22.1630   20.5837 Q=    0.4170 A=    0.0000 R=    0.0000 C=    0.0000
 XYZ=   19.5058   21.3239    9.6027 Q=   -0.8340 A=    0.0000 R=    0.0000 C=    0.0000
 XYZ=   20.1614   21.7955   10.1166 Q=    0.4170 A=    0.0000 R=    0.0000 C=    0.0000
 XYZ=   18.7996   21.1426   10.2229 Q=    0.4170 A=    0.0000 R=    0.0000 C=    0.0000
 XYZ=   10.1188   23.1478   11.0031 Q=   -0.8340 A=    0.0000 R=    0.0000 C=    0.0000
 XYZ=   10.8990   23.2556   10.4591 Q=    0.4170 A=    0.0000 R=    0.0000 C=    0.0000
 XYZ=    9.5893   23.9238   10.8198 Q=    0.4170 A=    0.0000 R=    0.0000 C=    0.0000
 XYZ=    6.7853   13.2979    7.6108 Q=   -0.8340 A=    0.0000 R=    0.0000 C=    0.0000
 XYZ=    7.2416   13.4521    6.7837 Q=    0.4170 A=    0.0000 R=    0.0000 C=    0.0000
 XYZ=    5.8822   13.5655    7.4403 Q=    0.4170 A=    0.0000 R=    0.0000 C=    0.0000
 XYZ=   17.4072   24.2521    7.6201 Q=   -0.8340 A=    0.0000 R=    0.0000 C=    0.0000
 XYZ=   16.7838   24.9434    7.3968 Q=    0.4170 A=    0.0000 R=    0.0000 C=    0.0000
 XYZ=   17.6480   23.8651    6.7784 Q=    0.4170 A=    0.0000 R=    0.0000 C=    0.0000
 XYZ=   20.3628   24.0832   25.3394 Q=   -0.8340 A=    0.0000 R=    0.0000 C=    0.0000
 XYZ=   19.8946   23.7819   24.5608 Q=    0.4170 A=    0.0000 R=    0.0000 C=    0.0000
 XYZ=   20.8704   24.8365   25.0377 Q=    0.4170 A=    0.0000 R=    0.0000 C=    0.0000
 XYZ=   13.1317    4.4492   17.4140 Q=   -0.8340 A=    0.0000 R=    0.0000 C=    0.0000
 XYZ=   12.6095    3.8447   16.8865 Q=    0.4170 A=    0.0000 R=    0.0000 C=    0.0000
 XYZ=   13.7075    4.8818   16.7836 Q=    0.4170 A=    0.0000 R=    0.0000 C=    0.0000
 XYZ=   31.5414   15.3088   16.5784 Q=   -0.8340 A=    0.0000 R=    0.0000 C=    0.0000
 XYZ=   31.1422   14.6173   16.0505 Q=    0.4170 A=    0.0000 R=    0.0000 C=    0.0000
 XYZ=   30.8955   16.0153   16.5764 Q=    0.4170 A=    0.0000 R=    0.0000 C=    0.0000
 XYZ=   27.9379   11.3421   19.3559 Q=   -0.8340 A=    0.0000 R=    0.0000 C=    0.0000
 XYZ=   27.0638   11.0608   19.0857 Q=    0.4170 A=    0.0000 R=    0.0000 C=    0.0000
 XYZ=   27.8281   11.6290   20.2625 Q=    0.4170 A=    0.0000 R=    0.0000 C=    0.0000
 XYZ=    6.0505   13.5391   12.7378 Q=   -0.8340 A=    0.0000 R=    0.0000 C=    0.0000
 XYZ=    5.5737   13.1180   13.4530 Q=    0.4170 A=    0.0000 R=    0.0000 C=    0.0000
 XYZ=    6.8064   12.9717   12.5864 Q=    0.4170 A=    0.0000 R=    0.0000 C=    0.0000
 XYZ=   23.3200    8.0999   12.1418 Q=   -0.8340 A=    0.0000 R=    0.0000 C=    0.0000
 XYZ=   23.6079    8.9803   11.9008 Q=    0.4170 A=    0.0000 R=    0.0000 C=    0.0000
 XYZ=   22.4046    8.2089   12.3994 Q=    0.4170 A=    0.0000 R=    0.0000 C=    0.0000
 XYZ=   12.5848   13.9267    2.7745 Q=   -0.8340 A=    0.0000 R=    0.0000 C=    0.0000
 XYZ=   11.9886   14.6384    2.5411 Q=    0.4170 A=    0.0000 R=    0.0000 C=    0.0000
 XYZ=   12.1273   13.1313    2.5022 Q=    0.4170 A=    0.0000 R=    0.0000 C=    0.0000
 XYZ=   11.8513   21.3359   17.8787 Q=   -0.8340 A=    0.0000 R=    0.0000 C=    0.0000
 XYZ=   11.4750   22.1316   18.2547 Q=    0.4170 A=    0.0000 R=    0.0000 C=    0.0000
 XYZ=   12.0684   20.7921   18.6359 Q=    0.4170 A=    0.0000 R=    0.0000 C=    0.0000
 XYZ=   18.0059    5.0386   25.0101 Q=   -0.8340 A=    0.0000 R=    0.0000 C=    0.0000
 XYZ=   18.3521    5.7239   25.5817 Q=    0.4170 A=    0.0000 R=    0.0000 C=    0.0000
 XYZ=   17.6342    4.3913   25.6093 Q=    0.4170 A=    0.0000 R=    0.0000 C=    0.0000
 XYZ=   10.1533    8.0198   26.1586 Q=   -0.8340 A=    0.0000 R=    0.0000 C=    0.0000
 XYZ=   11.0258    7.7073   25.9193 Q=    0.4170 A=    0.0000 R=    0.0000 C=    0.0000
 XYZ=   10.1723    8.9569   25.9641 Q=    0.4170 A=    0.0000 R=    0.0000 C=    0.0000
 XYZ=   14.5276    8.4226   20.4702 Q=   -0.8340 A=    0.0000 R=    0.0000 C=    0.0000
 XYZ=   13.9687    7.7746   20.0415 Q=    0.4170 A=    0.0000 R=    0.0000 C=    0.0000
 XYZ=   15.0225    7.9214   21.1184 Q=    0.4170 A=    0.0000 R=    0.0000 C=    0.0000
 XYZ=    7.1528   22.7372    7.5655 Q=   -0.8340 A=    0.0000 R=    0.0000 C=    0.0000
 XYZ=    6.8018   22.9185    6.6936 Q=    0.4170 A=    0.0000 R=    0.0000 C=    0.0000
 XYZ=    7.2926   23.6015    7.9525 Q=    0.4170 A=    0.0000 R=    0.0000 C=    0.0000
 XYZ=    9.4716    4.7685   10.2544 Q=   -0.8340 A=    0.0000 R=    0.0000 C=    0.0000
 XYZ=    9.0491    4.3407    9.5096 Q=    0.4170 A=    0.0000 R=    0.0000 C=    0.0000
 XYZ=    8.9905    5.5886   10.3646 Q=    0.4170 A=    0.0000 R=    0.0000 C=    0.0000
 XYZ=   20.2846   10.8814   29.0031 Q=   -0.8340 A=    0.0000 R=    0.0000 C=    0.0000
 XYZ=   19.5028   11.3588   28.7254 Q=    0.4170 A=    0.0000 R=    0.0000 C=    0.0000
 XYZ=   20.3918   10.1936   28.3460 Q=    0.4170 A=    0.0000 R=    0.0000 C=    0.0000
 XYZ=   30.1050   16.1067   19.8580 Q=   -0.8340 A=    0.0000 R=    0.0000 C=    0.0000
 XYZ=   29.3986   15.4629   19.8061 Q=    0.4170 A=    0.0000 R=    0.0000 C=    0.0000
 XYZ=   30.8725   15.6000   20.1237 Q=    0.4170 A=    0.0000 R=    0.0000 C=    0.0000
 XYZ=   11.9292    9.5492    9.1832 Q=   -0.8340 A=    0.0000 R=    0.0000 C=    0.0000
 XYZ=   12.7354    9.1056    9.4468 Q=    0.4170 A=    0.0000 R=    0.0000 C=    0.0000
 XYZ=   11.4793    8.9167    8.6231 Q=    0.4170 A=    0.0000 R=    0.0000 C=    0.0000
 XYZ=    4.6886   15.0975    7.6443 Q=   -0.8340 A=    0.0000 R=    0.0000 C=    0.0000
 XYZ=    3.7737   15.3565    7.5347 Q=    0.4170 A=    0.0000 R=    0.0000 C=    0.0000
 XYZ=    4.7246   14.7072    8.5175 Q=    0.4170 A=    0.0000 R=    0.0000 C=    0.0000
 XYZ=   22.3196   21.6971   17.6519 Q=   -0.8340 A=    0.0000 R=    0.0000 C=    0.0000
 XYZ=   21.9592   21.7456   18.5373 Q=    0.4170 A=    0.0000 R=    0.0000 C=    0.0000
 XYZ=   22.3787   22.6089   17.3666 Q=    0.4170 A=    0.0000 R=    0.0000 C=    0.0000
 XYZ=    3.3393   20.3999   12.5100 Q=   -0.8340 A=    0.0000 R=    0.0000 C=    0.0000
 XYZ=    2.7171   21.0670   12.7997 Q=    0.4170 A=    0.0000 R=    0.0000 C=    0.0000
 XYZ=    3.5529   20.6457   11.6099 Q=    0.4170 A=    0.0000 R=    0.0000 C=    0.0000
 XYZ=   30.4058   18.1754   12.4036 Q=   -0.8340 A=    0.0000 R=    0.0000 C=    0.0000
 XYZ=   30.5851   18.2401   11.4656 Q=    0.4170 A=    0.0000 R=    0.0000 C=    0.0000
 XYZ=   29.5310   17.7903   12.4548 Q=    0.4170 A=    0.0000 R=    0.0000 C=    0.0000
 XYZ=   30.1772   22.2470   17.7209 Q=   -0.8340 A=    0.0000 R=    0.0000 C=    0.0000
 XYZ=   30.2978   22.2086   18.6697 Q=    0.4170 A=    0.0000 R=    0.0000 C=    0.0000
 XYZ=   30.9579   21.8247   17.3625 Q=    0.4170 A=    0.0000 R=    0.0000 C=    0.0000
 XYZ=   23.7290   19.1581   26.6541 Q=   -0.8340 A=    0.0000 R=    0.0000 C=    0.0000
 XYZ=   23.2963   18.6632   27.3499 Q=    0.4170 A=    0.0000 R=    0.0000 C=    0.0000
[...]
 0.00004080,0.00005190,-0.00008869,-0.00003896,0.00002766,-0.00005613,0
 .00002794,-0.00100747,-0.00028455,-0.00026397,0.00019588,-0.00011572,0
 .00026116,0.00013719,0.00001349,-0.00014824,0.01047884,0.48209716,0.00
 135713,0.00131576,-0.00099491,0.00077909,0.00085819,-0.00000989,-0.000
 44490,-0.00033242,-0.00048846,0.00237021,0.00152597,0.00137792,-0.0012
 1293,-0.00066415,0.00041193,0.00001674,-0.00000834,0.00005789,0.000114
 26,-0.00009602,0.00001799,-0.00369658,0.00091473,-0.00046987,-0.000792
 82,-0.00098246,0.00089439,-0.00055904,-0.00068360,0.00073314,0.0001695
 4,0.00015934,0.00014562,0.00027437,-0.00023195,-0.00150825,-0.00018112
 ,-0.00003585,-0.00015740,0.00007689,-0.00001345,0.00008299,0.00008998,
 0.00001639,0.00005406,-0.00007538,-0.00010784,0.00015346,0.00010530,0.
 00013956,-0.00009044,0.00000027,0.00003744,-0.00008333,-0.00049202,0.0
 0046091,-0.00104191,0.00037428,-0.00056488,0.00103788,0.00016311,-0.00
 030195,0.00017298,0.00119733,-0.00220565,-0.00088388,-0.00011035,0.001
 00209,0.00166116,-0.00038702,0.00015074,-0.00007401,-0.00017668,-0.000
 12790,-0.00004531,0.00008237,0.00002998,0.00002441,0.00006984,0.000066
 82,-0.00004017,0.00253104,0.00496659,0.00151723,-0.00327452,-0.0031332
 6,-0.00402333,-0.00117164,0.00006694,-0.00090200,0.00163349,-0.0000763
 6,0.00110489,-0.00062713,-0.00014353,-0.00025495,-0.00024089,0.0001514
 8,-0.00010424,-0.00026741,-0.00043141,-0.00094169,0.00034298,0.0001881
 8,0.00036643,0.00010520,0.00018372,0.00048249,-0.00000584,-0.00001788,
 0.00031007,-0.00011009,-0.00003043,-0.00010022,0.00015411,0.00004755,-
 0.00033732,0.00267715,0.00208880,-0.00339589,-0.00185238,-0.00003155,-
 0.00031883,-0.00155846,-0.00218076,0.00461888,-0.00013381,-0.00028164,
 0.00041107,0.00011495,0.00025798,-0.00035094,0.00005448,0.00010027,-0.
 00005536,-0.00010132,-0.00003765,0.00007595,0.00006598,0.00003258,-0.0
 0005921,0.00003889,0.00000533,-0.00004780,-0.00018496,0.00012014,0.000
 24822,0.00008718,-0.00008027,-0.00008868,0.00004841,-0.00003106,-0.000
 06000,0.00007691,0.00035548,0.00071392,-0.00006782,-0.00051126,-0.0005
 8671,-0.00000436,-0.00029477,-0.00032941,0.00008294,-0.00006674,0.0003
 5157,0.00005690,-0.00000852,-0.00032147,-0.00005739,0.00004041,-0.0000
 9901,-0.00016299,-0.00015028,-0.00001788,0.00008132,0.00005513,-0.0000
 0146,0.00004838,0.00005377,0.00003300,-0.00030974,-0.00012891,-0.00032
 654,0.00009499,-0.00001889,0.00008516,0.00011108,0.00012732,0.00004883
 ,0.00052325,0.00026023,0.00065940,0.00003562,0.00016431,-0.00042021,-0
 .00003044,-0.00005611,-0.00002927,0.32321185,-0.14043064,0.26730685,-0
 .00190815,-0.00289194,-0.00015961,-0.00152217,-0.00193475,0.00026850,0
 .00066010,0.00202500,0.00265588,-0.00777322,-0.00602510,-0.00735158,0.
 00265025,0.00281156,-0.00000680,0.00016352,-0.00003260,-0.00008706,0.0
 0020041,-0.00006279,-0.00001892,0.00683004,-0.00040739,0.00495325,0.00
 110908,0.00165575,-0.00064530,0.00109062,0.00179963,-0.00019351,-0.000
 24650,-0.00046798,-0.00034407,-0.00095436,-0.00042835,0.00058357,-0.00
 006376,0.00009865,0.00038198,0.00005414,0.00000962,-0.00012343,-0.0000
 4898,-0.00000583,-0.00018381,0.00009504,0.00026669,-0.00000284,-0.0001
 5673,-0.00030833,-0.00000963,0.00001999,-0.00010130,0.00002371,-0.0010
 2918,0.00017222,-0.00035783,0.00070952,-0.00029948,0.00081581,0.000427
 63,-0.00001332,-0.00009071,-0.00014824,-0.00091311,-0.00050117,0.00042
 021,0.00039657,0.00057432,-0.00003570,0.00020987,0.00012484,0.00013513
 ,0.00032467,0.00032710,-0.00008546,-0.00006033,-0.00014176,-0.00005669
 ,-0.00010248,-0.00001661,-0.00126987,-0.00244253,0.00079095,0.00215212
 ,0.00348018,-0.00079358,0.00069566,-0.00008645,0.00024961,0.00004433,0
 .00029814,-0.00083391,0.00022761,-0.00029723,0.00017517,-0.00001411,0.
 00007773,0.00013864,-0.00054887,-0.00010881,-0.00032158,0.00030574,0.0
 0006095,0.00013587,0.00030299,0.00002945,0.00012101,0.00017749,0.00018
 475,-0.00025410,-0.00003186,-0.00008319,0.00010603,-0.00026157,-0.0001
 4981,0.00027945,0.00109120,-0.00007019,-0.00310331,-0.00106518,0.00040
 415,0.00039007,-0.00091874,0.00076630,0.00480355,-0.00014620,0.0002393
 1,-0.00008162,0.00015199,-0.00009199,0.00007888,0.00005165,-0.00004200
 ,0.00001062,0.00017545,0.00008222,-0.00000783,-0.00010350,-0.00007541,
 0.00000805,-0.00008961,-0.00001427,0.00001761,0.00026700,-0.00017793,-
 0.00001926,-0.00008532,0.00016245,-0.00002310,-0.00007610,0.00003449,0
 .00000370,-0.00116810,-0.00069163,-0.00015959,0.00125822,0.00162046,-0
 .00001816,0.00038356,-0.00034747,0.00025550,0.00021327,-0.00022068,-0.
 00015177,-0.00022895,0.00015655,0.00009795,-0.00009396,0.00004365,0.00
 005065,-0.00014638,0.00013408,0.00016071,0.00011748,-0.00016204,-0.000
 16304,0.00002301,-0.00003693,-0.00005624,-0.00032559,0.00007594,0.0000
 2109,0.00013563,-0.00009083,-0.00011147,0.00010533,-0.00000915,-0.0000
 5296,-0.00046666,0.00012317,-0.00019986,0.00012355,-0.00023098,0.00011
 910,0.00005385,-0.00007039,0.00000133,-0.08448805,0.10830491,-0.093440
 20,0.09533041,0.00019683,0.00050799,-0.00038545,0.00092297,0.00131518,
 -0.00017402,-0.00053842,-0.00113132,-0.00186231,0.00330608,0.00622241,
 0.00309181,-0.00102243,-0.00257374,0.00031491,-0.00007622,0.00002146,0
 .00003163,-0.00008346,0.00004310,0.00008703,-0.00460612,-0.00430637,-0
 .00253679,-0.00023401,-0.00048567,0.00028296,-0.00060485,-0.00111354,0
 .00044991,0.00004602,0.00019082,0.00015003,-0.00076624,0.00029232,-0.0
 0019175,0.00003683,-0.00006137,-0.00012267,-0.00001847,0.00001432,0.00
 003843,0.00001496,0.00001462,0.00005772,0.00000596,-0.00007222,0.00001
 338,0.00001412,0.00007991,-0.00001022,-0.00002235,0.00002148,-0.000007
 56,0.00031878,-0.00037832,0.00009048,-0.00019957,0.00030112,-0.0001815
 3,-0.00011424,0.00008059,0.00013577,-0.00034868,0.00044816,0.00043334,
 0.00015235,-0.00024460,-0.00071547,0.00007974,-0.00000226,-0.00005692,
 -0.00003020,-0.00012554,-0.00009223,0.00002608,0.00003140,0.00004184,0
 .00000985,0.00003780,-0.00000516,-0.00030871,0.00011757,-0.00002096,0.
 00078605,-0.00010317,-0.00017796,-0.00001461,-0.00026285,0.00020382,0.
 00032420,-0.00048733,0.00012448,-0.00018059,0.00006978,0.00002342,0.00
 009914,0.00016683,-0.00010210,0.00015322,-0.00004902,0.00035397,-0.000
 15579,-0.00003622,-0.00011253,-0.00006602,0.00018758,-0.00012266,0.000
 00072,-0.00005904,0.00006334,-0.00002265,0.00002410,-0.00001841,0.0000
 2871,0.00004111,-0.00007422,-0.00031757,-0.00131048,0.00066494,0.00033
 341,0.00019198,-0.00019903,0.00099151,0.00219182,-0.00149968,0.0001091
 2,0.00002466,0.00004649,-0.00008534,-0.00009516,-0.00000929,-0.0000329
 2,-0.00001295,-0.00002626,-0.00003864,-0.00004188,0.00001132,0.0000200
 0,0.00003283,-0.00001043,0.00001793,0.00001584,-0.00000953,-0.00013135
 ,-0.00000306,-0.00001086,0.00009264,-0.00003528,0.00003031,0.00003513,
 0.00000102,0.00000095,-0.00031950,0.00102735,-0.00064822,0.00089107,-0
 .00096445,0.00058821,-0.00026484,-0.00055004,0.00049355,-0.00011133,-0
 .00001649,0.00008029,0.00010563,0.00000570,-0.00005319,0.00002028,0.00
 001796,-0.00002871,0.00006982,-0.00005098,-0.00002168,-0.00005801,0.00
 006171,0.00004089,-0.00001011,0.00001419,0.00000697,0.00015520,-0.0000
 5282,0.00006124,-0.00006066,0.00005917,0.00002589,-0.00004498,0.000004
 03,-0.00000877,0.00013222,0.00004510,-0.00002814,-0.00009164,-0.000004
 80,-0.00001535,-0.00003791,0.00000328,0.00001636,0.15277029,-0.3797807
 4,0.22498617,-0.14008668,0.37094709,-0.00077382,-0.00077124,0.00081291
 ,-0.00081641,-0.00106638,-0.00005004,0.00050959,0.00015877,0.00072122,
 -0.00360860,-0.00201409,-0.00235047,0.00065703,0.00103168,-0.00032272,
 -0.00002351,-0.00000117,-0.00005375,-0.00008216,0.00008164,-0.00002224
 ,0.00286392,0.00041831,-0.00077610,0.00049720,0.00064357,-0.00060070,0
 .00055417,0.00079891,-0.00066021,-0.00011886,-0.00015232,-0.00015388,0
 .00042902,0.00017954,0.00106485,0.00008171,0.00004057,0.00014295,-0.00
 003241,0.00000526,-0.00006401,-0.00005447,-0.00000884,-0.00005569,0.00
 004803,0.00007288,-0.00006924,-0.00006598,-0.00009090,0.00004180,-0.00
 000140,-0.00002643,0.00003544,-0.00009533,-0.00016026,0.00084769,0.000
 22065,0.00021211,-0.00054424,-0.00003053,0.00022263,-0.00021598,-0.000
 22203,0.00046049,-0.00019809,0.00023550,-0.00046646,-0.00032576,0.0000
 7852,-0.00006611,-0.00003894,0.00010856,0.00011370,0.00007167,-0.00005
 557,-0.00002545,-0.00003298,-0.00004196,-0.00004635,0.00001870,-0.0001
 8781,-0.00078250,0.00031681,0.00046939,0.00081448,-0.00100446,0.000141
 14,0.00026517,0.00019269,-0.00090085,-0.00023665,-0.00038040,0.0001351
 0,0.00019970,0.00005905,0.00016712,-0.00006303,0.00007872,-0.00004163,
 0.00030823,0.00032414,-0.00009361,-0.00007041,-0.00014414,0.00004919,-
 0.00025794,-0.00027162,0.00001887,-0.00001138,-0.00017524,0.00005761,0
 .00003783,0.00005005,-0.00009680,-0.00001618,0.00019802,-0.00146597,0.
 00019077,-0.00028692,0.00036210,-0.00024743,0.00072805,0.00379788,-0.0
 0049887,-0.00223855,0.00001735,0.00013295,-0.00015761,0.00000026,-0.00
 007357,0.00012623,-0.00000952,-0.00004678,0.00002738,0.00006974,0.0000
 2326,-0.00004174,-0.00004462,-0.00002152,0.00003353,-0.00002771,-0.000
 00071,0.00002761,0.00012916,-0.00010660,-0.00017214,-0.00005330,0.0000
 7100,0.00006503,-0.00003247,0.00002481,0.00004093,-0.00025954,-0.00025
 656,-0.00084304,0.00019260,0.00062051,0.00080590,0.00012065,0.00023223
 ,0.00042140,-0.00008891,0.00003339,-0.00023163,-0.00002532,0.00001359,
 0.00022864,0.00004129,-0.00002015,0.00005671,0.00005022,0.00009462,0.0
 0003014,-0.00001851,-0.00005310,-0.00002495,-0.00001935,-0.00003166,-0
 .00002299,0.00007622,0.00009156,0.00014747,-0.00002321,-0.00001719,-0.
 00006355,-0.00003150,-0.00006553,-0.00002578,-0.00012589,-0.00008727,-
 0.00019172,0.00002643,-0.00004436,0.00014639,0.00001277,0.00001756,0.0
 0002361,-0.10666741,0.19182383,-0.13246548,0.11202635,-0.21414970,0.14
 787868,-0.00045003,-0.00050385,-0.00019640,-0.00023324,-0.00030881,0.0
 0001296,0.00014417,0.00026453,0.00038713,-0.00077479,-0.00060906,-0.00
 091333,0.00043067,0.00039057,0.00022754,0.00002052,-0.00000262,-0.0000
 2277,0.00001582,-0.00000797,-0.00000286,0.00092636,0.00021902,0.000717
 56,0.00025743,0.00028039,-0.00002774,0.00021526,0.00027101,0.00007745,
 -0.00008160,-0.00010162,-0.00009428,-0.00013722,-0.00003930,-0.0001536
 5,-0.00001559,0.00002374,0.00011609,0.00001431,0.00000350,-0.00004110,
 -0.00001287,0.00000001,-0.00005604,0.00005163,0.00007801,0.00003027,-0
 .00005666,-0.00007705,-0.00002183,-0.00001227,-0.00003865,-0.00000702,
 -0.00032427,0.00002416,0.00005807,0.00031575,-0.00006749,0.00015015,0.
 00010009,0.00001476,-0.00007413,-0.00075824,-0.00020792,-0.00027950,0.
 00036973,-0.00003850,-0.00014112,0.00011545,0.00013460,0.00025319,0.00
 003580,0.00008423,0.00010858,-0.00002249,-0.00001383,-0.00004506,-0.00
 001848,-0.00002687,-0.00001770,-0.00024403,0.00101402,-0.00004771,-0.0
 0042094,-0.00179341,-0.00010853,-0.00018210,-0.00010408,-0.00000813,0.
 00051510,0.00005008,0.00007977,-0.00015409,-0.00010919,0.00003043,-0.0
 0011396,0.00003992,0.00002995,-0.00021713,0.00000720,0.00000132,0.0000
 7459,0.00001356,0.00000805,0.00011215,-0.00002007,-0.00003392,0.000096
 72,0.00005830,-0.00003568,-0.00005390,-0.00003378,0.00002512,-0.000085
 18,-0.00004033,0.00003013,-0.00112180,0.00012432,-0.00098196,-0.000013
 57,-0.00018039,0.00154587,0.00149086,0.00017479,-0.00001051,-0.0000130
 4,0.00011908,0.00007104,0.00002187,-0.00009442,-0.00004496,0.00001362,
 -0.00003237,-0.00002203,0.00005998,0.00002061,0.00001188,-0.00003239,-
 0.00001846,-0.00000836,-0.00003358,-0.00000207,-0.00000268,0.00006326,
 -0.00005235,0.00003472,-0.00002312,0.00004011,-0.00002263,-0.00001999,
 0.00001134,-0.00000844,-0.00014577,-0.00039333,0.00023436,-0.00000389,
 0.00037905,-0.00022504,0.00018310,0.00011737,-0.00008681,0.00012204,-0
 .00010729,0.00002016,-0.00007476,0.00005553,-0.00003667,-0.00005640,0.
 00003389,0.00000066,-0.00004028,0.00003746,0.00007116,0.00003029,-0.00
 004305,-0.00006055,0.00000756,-0.00001221,-0.00002458,-0.00008641,0.00
 002207,0.00003689,0.00003505,-0.00002182,-0.00003883,0.00003233,-0.000
 00382,-0.00002934,0.00004304,0.00019732,0.00001450,-0.00000239,-0.0000
 8219,-0.00004035,-0.00000359,-0.00006353,0.00003208,-0.37497671,-0.121
 68630,-0.22508160,-0.01305209,-0.01025278,-0.00821246,0.37926996,0.000
 10620,0.00015810,0.00003440,-0.00003903,-0.00000524,0.00001487,-0.0000
 7341,0.00010371,0.00000819,-0.00030344,-0.00031738,-0.00024917,-0.0001
 3234,-0.00004967,-0.00013954,0.00000908,-0.00000021,-0.00000026,0.0000
 1542,0.00000861,0.00001083,0.00091895,-0.00103289,0.00026682,-0.000035
 89,-0.00011109,0.00003103,0.00001215,-0.00002681,-0.00001112,-0.000002
 79,0.00001672,0.00000299,0.00002265,-0.00001649,0.00004715,0.00001005,
 -0.00002195,-0.00000261,-0.00000010,0.00001285,0.00000082,-0.00000187,
 0.00000844,0.00000039,0.00002106,-0.00002596,0.00000438,-0.00000852,0.
 00002650,-0.00000196,-0.00001840,0.00000704,-0.00000621,-0.00003010,-0
 .00014224,-0.00005832,0.00005139,0.00007457,0.00006928,0.00002263,0.00
 004142,0.00002270,0.00024087,0.00003835,0.00059207,-0.00017883,0.00009
 645,-0.00010850,0.00003881,-0.00000046,-0.00011582,0.00000981,-0.00002
 188,-0.00000285,-0.00000162,0.00000861,0.00000095,-0.00000537,0.000008
 58,-0.00000336,0.00161059,-0.00013741,0.00076563,-0.00247494,0.0005431
 2,-0.00194234,-0.00033330,-0.00003978,-0.00011167,-0.00005134,-0.00021
 211,-0.00002812,-0.00005596,0.00010215,-0.00003093,0.00008394,0.000073
 07,0.00001644,0.00007028,-0.00009785,0.00013264,-0.00004004,-0.0000129
 2,-0.00002839,-0.00001211,0.00014437,0.00000095,0.00001800,-0.00005059
 ,0.00000622,-0.00000991,0.00003243,-0.00000134,-0.00000600,0.00002666,
 -0.00000743,0.00004368,-0.00106058,-0.00072089,-0.00007348,0.00083265,
 0.00008067,0.00021552,0.00105063,0.00009001,0.00004177,-0.00003297,0.0
 0005532,-0.00004247,0.00003744,-0.00004188,-0.00002523,-0.00000352,-0.
 00002000,0.00000268,-0.00001956,-0.00000026,-0.00000351,0.00001341,0.0
 0000023,-0.00000098,0.00001089,0.00000026,-0.00001379,-0.00003197,-0.0
 0003403,0.00002637,0.00002094,0.00002194,0.00000641,0.00000925,0.00000
 767,-0.00045324,0.00014204,-0.00053168,0.00046776,0.00026516,0.0002908
 4,0.00011458,-0.00017262,0.00041125,-0.00005844,-0.00002883,-0.0000232
 0,0.00001855,0.00002397,0.00003066,0.00001346,0.00000887,-0.00000055,0
 .00001834,-0.00001824,0.00001175,-0.00001666,0.00001467,0.00000048,-0.
 00000250,0.00000489,-0.00000494,0.00003962,-0.00003047,0.00003275,-0.0
 0001171,0.00002262,-0.00000162,-0.00001044,0.00000859,-0.00001149,0.00
 022323,0.00001882,0.00008908,-0.00001785,0.00005947,-0.00005087,-0.000
 03250,0.00000272,0.00002540,-0.16609198,-0.09718141,-0.08488773,0.0342
 9409,0.01049062,0.02280264,0.12628870,0.09352975,-0.00037209,-0.000380
 81,0.00016203,-0.00012813,-0.00016409,0.00001665,0.00009040,0.00003859
 ,0.00009840,-0.00027830,-0.00005103,-0.00016730,0.00040896,0.00014852,
 -0.00001924,-0.00001124,0.00000160,-0.00001454,-0.00005387,0.00003696,
 -0.00000027,0.00031719,-0.00007781,0.00004894,0.00025168,0.00026225,-0
 .00019936,0.00013077,0.00014848,-0.00012596,-0.00005786,-0.00003861,-0
 .00003591,-0.00032133,0.00008987,0.00023660,0.00007437,0.00000898,0.00
 004902,-0.00003400,0.00000467,-0.00002902,-0.00003348,-0.00000559,-0.0
 0001658,0.00004259,0.00003716,-0.00004099,-0.00004425,-0.00004403,0.00
 002192,-0.00001117,-0.00001671,0.00002316,0.00037655,-0.00012647,0.000
 40442,-0.00038755,0.00022489,-0.00053482,-0.00008656,0.00010808,-0.000
 05425,0.00009685,0.00101245,0.00057664,-0.00029267,-0.00029228,-0.0004
 0946,0.00012158,-0.00023058,-0.00010594,0.00006193,0.00003457,0.000015
 09,-0.00002842,-0.00000786,-0.00000704,-0.00002682,-0.00002065,0.00000
 914,-0.00068432,0.00022119,-0.00141517,0.00082467,-0.00097792,0.002316
 39,0.00013862,-0.00005057,0.00008392,-0.00025782,-0.00023994,-0.000528
 69,0.00011081,0.00005291,0.00016722,0.00017814,0.00005129,0.00006357,0
 .00019529,0.00017710,0.00034915,-0.00014547,-0.00007951,-0.00014969,-0
 .00009676,-0.00010396,-0.00015139,0.00003498,0.00000479,-0.00010148,0.
 00000877,0.00000626,0.00004400,-0.00006656,-0.00001437,0.00009756,-0.0
 0042628,-0.00053422,0.00260010,0.00143442,0.00013308,-0.00105682,-0.00
 102618,-0.00001068,-0.00289701,0.00005352,0.00008683,-0.00008133,-0.00
 005008,-0.00007538,0.00006861,-0.00002639,-0.00003812,0.00000842,0.000
 04215,0.00000920,-0.00002180,-0.00002610,-0.00000789,0.00001628,-0.000
 01866,0.00000063,0.00001456,0.00006426,-0.00004114,-0.00007546,-0.0000
 3628,0.00002527,0.00003008,-0.00001846,0.00001292,0.00001810,0.0000965
 3,-0.00023190,-0.00018765,-0.00014773,0.00014787,0.00013649,-0.0000375
 6,0.00024105,0.00004351,-0.00000515,-0.00001799,-0.00011705,-0.0000274
 7,0.00001540,0.00009327,0.00000483,0.00000069,0.00003315,0.00006834,0.
 00005072,0.00000817,-0.00003393,-0.00001288,0.00000194,-0.00002010,-0.
 00002008,-0.00001359,0.00013984,0.00004622,0.00012737,-0.00004429,0.00
 001133,-0.00002775,-0.00004756,-0.00004678,-0.00001703,-0.00004782,0.0
 0002259,-0.00018469,-0.00002735,-0.00005875,0.00008735,-0.00000240,-0.
 00000225,0.00004984,-0.21210538,-0.05426070,-0.13587940,-0.02109188,-0
 .00901527,-0.01007070,0.22100317,0.05932530,0.14761248\\0.00068319,-0.
 00857856,0.04373823,0.01319588,0.00477344,0.01878369,0.03597503,0.0139
 6377,-0.00912584,-0.01667786,0.04286940,0.02872392,-0.02533830,-0.0279
 2058,-0.04719359,-0.00549995,-0.00101170,0.00434058,-0.01583572,-0.020
 68955,0.02043913,0.01336866,0.00105507,-0.01842801,0.00337679,0.006036
 56,-0.00550653,-0.01650863,-0.01962852,-0.04341345,0.01327685,0.018599
 09,0.03081736,0.00583950,-0.00315750,-0.02396058,-0.00285274,0.0119957
 2,0.00779109,-0.01264322,-0.01728660,0.00691495,0.02640678,-0.00100596
 ,-0.00501445,0.01252813,-0.00061775,0.01372847,-0.01251014,-0.00932558
 ,-0.00118008,-0.00379296,0.01929171,-0.00862042,0.00347746,0.00233908,
 -0.00141107,-0.01488034,-0.00062723,-0.00405423,0.00320815,-0.01617592
 ,0.01069298,0.00421014,0.00969579,-0.01619991,0.00747518,-0.00017311,0
 .01218376,-0.00580482,0.00665261,0.00610708,-0.00673269,-0.00518363,-0
 .00749977,0.00488740,-0.01031725,0.01041593,0.01964675,0.02310187,-0.0
 0860087,-0.01309281,0.00812671,-0.01214610,-0.00881246,-0.01656927,0.0
 1035881,0.01369041,0.01334338,0.00343178,-0.00869215,0.00260867,0.0078
 4015,0.01347152,0.02344889,-0.01171401,0.00329967,-0.00836405,-0.00293
 988,-0.02907265,0.01778320,-0.00751987,0.01858695,-0.00011384,0.007864
 48,0.00643128,-0.01808860,-0.00006744,0.01717165,0.00561856,-0.0052757
 1,-0.00592107,-0.00285352,-0.00773853,-0.01096223,-0.00091912,0.009791
 26,0.00548401,-0.01445539,0.01104239,-0.02347449,0.00783099,-0.0132232
 5,0.00521910,0.00552635,-0.00580006,0.00924407,-0.00503703,-0.00555686
 ,-0.01680663,-0.00175467,0.00297269,-0.00033577,0.00792899,0.01028746,
 0.00787033,0.00193389,0.00729473,-0.00580558,0.01037241,-0.00024954,0.
 01112031,-0.01099941,-0.01303851,-0.00388227,0.01063615,-0.00737474,-0
 .00385256,-0.01213855,0.00639272,0.00657277,-0.00117185,0.00358337,-0.
 00592103,-0.02418346,0.00497544,0.01183886,0.01210121,-0.00044870,-0.0
 0898049,-0.00208433,0.00060814,-0.00429359,-0.01113804,-0.02604130,-0.
 00530146,-0.00129809,0.01941088,0.01338337,0.00335115,0.00000827,-0.02
 161849,0.01652040,0.00202672,0.01325209,-0.01085161,-0.00988422,0.0032
 1201,0.00012252,0.01505990,-0.02259452,0.00264470,0.00787162,0.0070892
 3,-0.00602691,-0.00142027,0.01482778,0.01085051,-0.00537405,-0.0072700
 3,-0.00922979,-0.01244236,0.00764283,-0.00170219,0.01111605,0.01505297
 ,0.01455514,-0.01044478,0.00125537,0.01009073,0.00254065,0.01473216,-0
 .00900660,-0.00005530,-0.02162997,-0.00456735,-0.01380036\\\@


 ART, GLORY, FREEDOM FAIL, BUT NATURE STILL IS FAIR.

                                           -- BYRON
 Job cpu time:       1 days  5 hours 13 minutes  3.3 seconds.
 Elapsed time:       0 days  0 hours 55 minutes 19.1 seconds.
 File lengths (MBytes):  RWF=   3378 Int=      0 D2E=      0 Chk=     37 Scr=      1
 Normal termination of Gaussian 16 at Fri Sep 16 23:55:41 2022.
