 Entering Gaussian System, Link 0=/shared/gaussian/g16.b01/AVX2/g16/g16
 Input=snap001.S0.com
 Output=snap001.S0.log
 Initial command:
 /shared/gaussian/g16.b01/AVX2/g16/l1.exe "/scratch/giacomo/Gauscr/Gau-11663.inp" -scrdir="/scratch/giacomo/Gauscr/"
 Entering Link 1 = /shared/gaussian/g16.b01/AVX2/g16/l1.exe PID=     11664.
  
 Copyright (c) 1988-2017, Gaussian, Inc.  All Rights Reserved.
  
 This is part of the Gaussian(R) 16 program.  It is based on
 the Gaussian(R) 09 system (copyright 2009, Gaussian, Inc.),
 the Gaussian(R) 03 system (copyright 2003, Gaussian, Inc.),
 the Gaussian(R) 98 system (copyright 1998, Gaussian, Inc.),
 the Gaussian(R) 94 system (copyright 1995, Gaussian, Inc.),
 the Gaussian 92(TM) system (copyright 1992, Gaussian, Inc.),
 the Gaussian 90(TM) system (copyright 1990, Gaussian, Inc.),
 the Gaussian 88(TM) system (copyright 1988, Gaussian, Inc.),
 the Gaussian 86(TM) system (copyright 1986, Carnegie Mellon
 University), and the Gaussian 82(TM) system (copyright 1983,
 Carnegie Mellon University). Gaussian is a federally registered
 trademark of Gaussian, Inc.
  
 This software contains proprietary and confidential information,
 including trade secrets, belonging to Gaussian, Inc.
  
 This software is provided under written license and may be
 used, copied, transmitted, or stored only in accord with that
 written license.
  
 The following legend is applicable only to US Government
 contracts under FAR:
  
                    RESTRICTED RIGHTS LEGEND
  
 Use, reproduction and disclosure by the US Government is
 subject to restrictions as set forth in subparagraphs (a)
 and (c) of the Commercial Computer Software - Restricted
 Rights clause in FAR 52.227-19.
  
 Gaussian, Inc.
 340 Quinnipiac St., Bldg. 40, Wallingford CT 06492
  
  
 ---------------------------------------------------------------
 Warning -- This program may not be used in any manner that
 competes with the business of Gaussian, Inc. or will provide
 assistance to any competitor of Gaussian, Inc.  The licensee
 of this program is prohibited from giving any competitor of
 Gaussian, Inc. access to this program.  By using this program,
 the user acknowledges that Gaussian, Inc. is engaged in the
 business of creating and licensing software in the field of
 computational chemistry and represents and warrants to the
 licensee that it is not a competitor of Gaussian, Inc. and that
 it will not use this program in any manner prohibited above.
 ---------------------------------------------------------------
  

 Cite this work as:
 Gaussian 16, Revision B.01,
 M. J. Frisch, G. W. Trucks, H. B. Schlegel, G. E. Scuseria, 
 M. A. Robb, J. R. Cheeseman, G. Scalmani, V. Barone, 
 G. A. Petersson, H. Nakatsuji, X. Li, M. Caricato, A. V. Marenich, 
 J. Bloino, B. G. Janesko, R. Gomperts, B. Mennucci, H. P. Hratchian, 
 J. V. Ortiz, A. F. Izmaylov, J. L. Sonnenberg, D. Williams-Young, 
 F. Ding, F. Lipparini, F. Egidi, J. Goings, B. Peng, A. Petrone, 
 T. Henderson, D. Ranasinghe, V. G. Zakrzewski, J. Gao, N. Rega, 
 G. Zheng, W. Liang, M. Hada, M. Ehara, K. Toyota, R. Fukuda, 
 J. Hasegawa, M. Ishida, T. Nakajima, Y. Honda, O. Kitao, H. Nakai, 
 T. Vreven, K. Throssell, J. A. Montgomery, Jr., J. E. Peralta, 
 F. Ogliaro, M. J. Bearpark, J. J. Heyd, E. N. Brothers, K. N. Kudin, 
 V. N. Staroverov, T. A. Keith, R. Kobayashi, J. Normand, 
 K. Raghavachari, A. P. Rendell, J. C. Burant, S. S. Iyengar, 
 J. Tomasi, M. Cossi, J. M. Millam, M. Klene, C. Adamo, R. Cammi, 
 J. W. Ochterski, R. L. Martin, K. Morokuma, O. Farkas, 
 J. B. Foresman, and D. J. Fox, Gaussian, Inc., Wallingford CT, 2016.
 
 ******************************************
 Gaussian 16:  ES64L-G16RevB.01 20-Dec-2017
                16-Sep-2022 
 ******************************************
 %Nproc=32
 Will use up to   32 processors via shared memory.
 %Mem=120Gb
 %chk=temp.chk
 -------------------------------------------
 #p cam-b3lyp/6-31+G(d,p) nosymm charge Freq
 -------------------------------------------
 1/10=4,18=10,28=-2,30=1,38=1,125=101/1,3;
 2/12=2,15=1,17=6,18=5,40=1/2;
 3/5=1,6=6,7=111,11=2,25=1,30=1,71=2,74=-40,140=1/1,2,3;
 4//1;
 5/5=2,38=5,98=1/2;
 8/6=4,10=90,11=11/1;
 11/6=1,8=1,9=11,15=111,16=1,31=1/1,2,10;
 10/6=1,31=1/2;
 6/7=2,8=2,9=2,10=2,28=1/1;
 7/8=1,10=1,16=-2,25=1,30=1/1,2,3,16;
 1/10=4,18=10,28=-2,30=1/3;
 99//99;
 Leave Link    1 at Fri Sep 16 18:24:32 2022, MaxMem= 16106127360 cpu:               1.8 elap:               0.1
 (Enter /shared/gaussian/g16.b01/AVX2/g16/l101.exe)
 ------------------------------------------
 Calculation for S0 with freq for abs spect
 ------------------------------------------
 Symbolic Z-matrix:
 Charge =  0 Multiplicity = 1
 C                     15.67001   17.52951   16.0799 
 C                     17.29263   15.73382   15.50664 
 C                     17.69386   15.59301   16.75284 
 C                     17.02629   16.30618   17.76575 
 N                     16.02668   17.20797   17.42578 
 H                     17.67125   15.12497   14.63812 
 H                     18.45954   14.96849   17.03646 
 O                     17.17321   16.07324   18.97937 
 O                     14.84122   18.33227   15.79511 
 N                     16.36929   16.69331   15.18925 
 H                     15.95504   16.77448   14.32139 
 H                     15.50575   17.72944   18.15479 
 O                     15.16038   12.7356   18.51849 
 H                     15.39638   12.82334   19.44198 
 H                     14.79566   13.58839   18.28193 
 O                     15.26958   18.40867   20.15626 
 H                     15.44118   17.89855   20.94781 
 H                     15.93098   19.1005   20.16852 
 O                     20.37597   16.84231   17.82134 
 H                     20.5219   16.31836   17.03367 
 H                     20.22122   16.1985   18.51256 
 O                     18.08614   16.43414   11.19681 
 H                     18.59915   16.67966   11.96673 
 H                     18.25768   15.49943   11.08222 
 O                     16.99211   11.41405   16.52697 
 H                     17.67431   10.91973   16.98136 
 H                     16.53206   11.88349   17.22282 
 O                     20.62375   15.55142   15.49848 
 H                     20.11217   14.74404   15.55008 
 H                     21.41136   15.30587   15.01309 
 O                     12.22069   19.26648   17.38542 
 H                     11.59461   19.61068   16.74841 
 H                     12.52646   18.4447   17.00147 
 O                     19.62977   19.48121   17.73478 
 H                     20.017    18.71729   18.16221 
 H                     19.72011   19.30383   16.7985 
 O                     19.1771   17.44179   13.48212 
 H                     20.04441   17.78154   13.70253 
 H                     18.58418   17.88611   14.08814 
 O                     14.75744   15.10878   20.44497 
 H                     14.58792   15.42518   21.33232 
 H                     15.38913   15.73127   20.08481 
 O                     17.14771   20.75291   17.71769 
 H                     17.10205   20.3512   16.85006 
 H                     17.99917   20.48367   18.0623 
 O                     12.39475   12.47727   16.61637 
 H                     12.81962   13.33388   16.57242 
 H                     11.72193   12.57736   17.28982 
 O                     15.47729   12.7701   14.87859 
 H                     16.05702   12.50519   14.16447 
 H                     15.85314   12.35996   15.65754 
 O                     14.01277   14.65537   16.79978 
 H                     13.46878   15.33746   16.40602 
 H                     14.64448   14.42845   16.11738 
 O                     18.97149   16.03971   21.04293 
 H                     19.49676   16.8341   21.13921 
 H                     18.35456   16.24365   20.34005 
 O                     17.93946   19.72671   14.64837 
 H                     18.73378   19.98661   14.18176 
 H                     17.22637   19.94479   14.04823 
 O                     19.16089   12.76961   14.99962 
 H                     19.88365   12.58135   15.59829 
 H                     18.45462   12.19073   15.28654 
 O                     13.31456   20.09135   14.22431 
 H                     12.35761   20.07985   14.24287 
 H                     13.57563   19.59991   15.00312 
 O                     15.07784   16.67276   12.13851 
 H                     15.79467   16.98724   11.58761 
 H                     15.13982   15.71872   12.09151 
 O                     12.58985   16.48932   14.74099 
 H                     13.09897   17.19123   14.33559 
 H                     11.89091   16.30636   14.11311 
 
 ITRead=  0  0  0  0  0  0  0  0  0  0  0  0  0  0  0  0  0  0  0  0
 ITRead=  0  0  0  0  0  0  0  0  0  0  0  0  0  0  0  0  0  0  0  0
 ITRead=  0  0  0  0  0  0  0  0  0  0  0  0  0  0  0  0  0  0  0  0
 ITRead=  0  0  0  0  0  0  0  0  0  0  0  0
 MicOpt= -1 -1 -1 -1 -1 -1 -1 -1 -1 -1 -1 -1 -1 -1 -1 -1 -1 -1 -1 -1
 MicOpt= -1 -1 -1 -1 -1 -1 -1 -1 -1 -1 -1 -1 -1 -1 -1 -1 -1 -1 -1 -1
 MicOpt= -1 -1 -1 -1 -1 -1 -1 -1 -1 -1 -1 -1 -1 -1 -1 -1 -1 -1 -1 -1
 MicOpt= -1 -1 -1 -1 -1 -1 -1 -1 -1 -1 -1 -1
 NAtoms=     72 NQM=       72 NQMF=       0 NMMI=      0 NMMIF=      0
                NMic=       0 NMicF=      0.
                    Isotopes and Nuclear Properties:
 (Nuclear quadrupole moments (NQMom) in fm**2, nuclear magnetic moments (NMagM)
  in nuclear magnetons)

  Atom         1           2           3           4           5           6           7           8           9          10
 IAtWgt=          12          12          12          12          14           1           1          16          16          14
 AtmWgt=  12.0000000  12.0000000  12.0000000  12.0000000  14.0030740   1.0078250   1.0078250  15.9949146  15.9949146  14.0030740
 NucSpn=           0           0           0           0           2           1           1           0           0           2
 AtZEff=  -0.0000000  -0.0000000  -0.0000000  -0.0000000  -0.0000000  -0.0000000  -0.0000000  -0.0000000  -0.0000000  -0.0000000
 NQMom=    0.0000000   0.0000000   0.0000000   0.0000000   2.0440000   0.0000000   0.0000000   0.0000000   0.0000000   2.0440000
 NMagM=    0.0000000   0.0000000   0.0000000   0.0000000   0.4037610   2.7928460   2.7928460   0.0000000   0.0000000   0.4037610
 AtZNuc=   6.0000000   6.0000000   6.0000000   6.0000000   7.0000000   1.0000000   1.0000000   8.0000000   8.0000000   7.0000000

  Atom        11          12          13          14          15          16          17          18          19          20
 IAtWgt=           1           1          16           1           1          16           1           1          16           1
 AtmWgt=   1.0078250   1.0078250  15.9949146   1.0078250   1.0078250  15.9949146   1.0078250   1.0078250  15.9949146   1.0078250
 NucSpn=           1           1           0           1           1           0           1           1           0           1
 AtZEff=  -0.0000000  -0.0000000  -0.0000000  -0.0000000  -0.0000000  -0.0000000  -0.0000000  -0.0000000  -0.0000000  -0.0000000
 NQMom=    0.0000000   0.0000000   0.0000000   0.0000000   0.0000000   0.0000000   0.0000000   0.0000000   0.0000000   0.0000000
 NMagM=    2.7928460   2.7928460   0.0000000   2.7928460   2.7928460   0.0000000   2.7928460   2.7928460   0.0000000   2.7928460
 AtZNuc=   1.0000000   1.0000000   8.0000000   1.0000000   1.0000000   8.0000000   1.0000000   1.0000000   8.0000000   1.0000000

  Atom        21          22          23          24          25          26          27          28          29          30
 IAtWgt=           1          16           1           1          16           1           1          16           1           1
 AtmWgt=   1.0078250  15.9949146   1.0078250   1.0078250  15.9949146   1.0078250   1.0078250  15.9949146   1.0078250   1.0078250
 NucSpn=           1           0           1           1           0           1           1           0           1           1
 AtZEff=  -0.0000000  -0.0000000  -0.0000000  -0.0000000  -0.0000000  -0.0000000  -0.0000000  -0.0000000  -0.0000000  -0.0000000
 NQMom=    0.0000000   0.0000000   0.0000000   0.0000000   0.0000000   0.0000000   0.0000000   0.0000000   0.0000000   0.0000000
 NMagM=    2.7928460   0.0000000   2.7928460   2.7928460   0.0000000   2.7928460   2.7928460   0.0000000   2.7928460   2.7928460
 AtZNuc=   1.0000000   8.0000000   1.0000000   1.0000000   8.0000000   1.0000000   1.0000000   8.0000000   1.0000000   1.0000000

  Atom        31          32          33          34          35          36          37          38          39          40
 IAtWgt=          16           1           1          16           1           1          16           1           1          16
 AtmWgt=  15.9949146   1.0078250   1.0078250  15.9949146   1.0078250   1.0078250  15.9949146   1.0078250   1.0078250  15.9949146
 NucSpn=           0           1           1           0           1           1           0           1           1           0
 AtZEff=  -0.0000000  -0.0000000  -0.0000000  -0.0000000  -0.0000000  -0.0000000  -0.0000000  -0.0000000  -0.0000000  -0.0000000
 NQMom=    0.0000000   0.0000000   0.0000000   0.0000000   0.0000000   0.0000000   0.0000000   0.0000000   0.0000000   0.0000000
 NMagM=    0.0000000   2.7928460   2.7928460   0.0000000   2.7928460   2.7928460   0.0000000   2.7928460   2.7928460   0.0000000
 AtZNuc=   8.0000000   1.0000000   1.0000000   8.0000000   1.0000000   1.0000000   8.0000000   1.0000000   1.0000000   8.0000000

  Atom        41          42          43          44          45          46          47          48          49          50
 IAtWgt=           1           1          16           1           1          16           1           1          16           1
 AtmWgt=   1.0078250   1.0078250  15.9949146   1.0078250   1.0078250  15.9949146   1.0078250   1.0078250  15.9949146   1.0078250
 NucSpn=           1           1           0           1           1           0           1           1           0           1
 AtZEff=  -0.0000000  -0.0000000  -0.0000000  -0.0000000  -0.0000000  -0.0000000  -0.0000000  -0.0000000  -0.0000000  -0.0000000
 NQMom=    0.0000000   0.0000000   0.0000000   0.0000000   0.0000000   0.0000000   0.0000000   0.0000000   0.0000000   0.0000000
 NMagM=    2.7928460   2.7928460   0.0000000   2.7928460   2.7928460   0.0000000   2.7928460   2.7928460   0.0000000   2.7928460
 AtZNuc=   1.0000000   1.0000000   8.0000000   1.0000000   1.0000000   8.0000000   1.0000000   1.0000000   8.0000000   1.0000000

  Atom        51          52          53          54          55          56          57          58          59          60
 IAtWgt=           1          16           1           1          16           1           1          16           1           1
 AtmWgt=   1.0078250  15.9949146   1.0078250   1.0078250  15.9949146   1.0078250   1.0078250  15.9949146   1.0078250   1.0078250
 NucSpn=           1           0           1           1           0           1           1           0           1           1
 AtZEff=  -0.0000000  -0.0000000  -0.0000000  -0.0000000  -0.0000000  -0.0000000  -0.0000000  -0.0000000  -0.0000000  -0.0000000
 NQMom=    0.0000000   0.0000000   0.0000000   0.0000000   0.0000000   0.0000000   0.0000000   0.0000000   0.0000000   0.0000000
 NMagM=    2.7928460   0.0000000   2.7928460   2.7928460   0.0000000   2.7928460   2.7928460   0.0000000   2.7928460   2.7928460
 AtZNuc=   1.0000000   8.0000000   1.0000000   1.0000000   8.0000000   1.0000000   1.0000000   8.0000000   1.0000000   1.0000000

  Atom        61          62          63          64          65          66          67          68          69          70
 IAtWgt=          16           1           1          16           1           1          16           1           1          16
 AtmWgt=  15.9949146   1.0078250   1.0078250  15.9949146   1.0078250   1.0078250  15.9949146   1.0078250   1.0078250  15.9949146
 NucSpn=           0           1           1           0           1           1           0           1           1           0
 AtZEff=  -0.0000000  -0.0000000  -0.0000000  -0.0000000  -0.0000000  -0.0000000  -0.0000000  -0.0000000  -0.0000000  -0.0000000
 NQMom=    0.0000000   0.0000000   0.0000000   0.0000000   0.0000000   0.0000000   0.0000000   0.0000000   0.0000000   0.0000000
 NMagM=    0.0000000   2.7928460   2.7928460   0.0000000   2.7928460   2.7928460   0.0000000   2.7928460   2.7928460   0.0000000
 AtZNuc=   8.0000000   1.0000000   1.0000000   8.0000000   1.0000000   1.0000000   8.0000000   1.0000000   1.0000000   8.0000000

  Atom        71          72
 IAtWgt=           1           1
 AtmWgt=   1.0078250   1.0078250
 NucSpn=           1           1
 AtZEff=  -0.0000000  -0.0000000
 NQMom=    0.0000000   0.0000000
 NMagM=    2.7928460   2.7928460
 AtZNuc=   1.0000000   1.0000000
 Background charge distribution read from input stream:
 Point Charges:
 XYZ=   16.1392   17.1733    4.7388 Q=   -0.8340 A=    0.0000 R=    0.0000 C=    0.0000
 XYZ=   16.6393   17.3523    3.9425 Q=    0.4170 A=    0.0000 R=    0.0000 C=    0.0000
 XYZ=   15.6192   16.3982    4.5265 Q=    0.4170 A=    0.0000 R=    0.0000 C=    0.0000
 XYZ=   28.1019   14.0561   13.5830 Q=   -0.8340 A=    0.0000 R=    0.0000 C=    0.0000
 XYZ=   28.9420   14.3809   13.9071 Q=    0.4170 A=    0.0000 R=    0.0000 C=    0.0000
 XYZ=   27.7828   14.7502   13.0062 Q=    0.4170 A=    0.0000 R=    0.0000 C=    0.0000
 XYZ=    7.2116   24.5785   22.9203 Q=   -0.8340 A=    0.0000 R=    0.0000 C=    0.0000
 XYZ=    7.7562   24.0533   23.5066 Q=    0.4170 A=    0.0000 R=    0.0000 C=    0.0000
 XYZ=    7.0006   25.3627   23.4269 Q=    0.4170 A=    0.0000 R=    0.0000 C=    0.0000
 XYZ=   16.3270    3.3737   15.3587 Q=   -0.8340 A=    0.0000 R=    0.0000 C=    0.0000
 XYZ=   15.7968    4.1110   15.6612 Q=    0.4170 A=    0.0000 R=    0.0000 C=    0.0000
 XYZ=   16.7595    3.6972   14.5685 Q=    0.4170 A=    0.0000 R=    0.0000 C=    0.0000
 XYZ=   10.2692   25.4992   22.2973 Q=   -0.8340 A=    0.0000 R=    0.0000 C=    0.0000
 XYZ=    9.4933   26.0392   22.4473 Q=    0.4170 A=    0.0000 R=    0.0000 C=    0.0000
 XYZ=   10.8426   25.6915   23.0392 Q=    0.4170 A=    0.0000 R=    0.0000 C=    0.0000
 XYZ=    8.5419   16.5978   28.3519 Q=   -0.8340 A=    0.0000 R=    0.0000 C=    0.0000
 XYZ=    8.4279   17.1308   27.5650 Q=    0.4170 A=    0.0000 R=    0.0000 C=    0.0000
 XYZ=    9.0776   15.8581   28.0651 Q=    0.4170 A=    0.0000 R=    0.0000 C=    0.0000
 XYZ=   15.4037   29.7474   15.6157 Q=   -0.8340 A=    0.0000 R=    0.0000 C=    0.0000
 XYZ=   14.9976   28.9324   15.9109 Q=    0.4170 A=    0.0000 R=    0.0000 C=    0.0000
 XYZ=   16.0324   29.4740   14.9477 Q=    0.4170 A=    0.0000 R=    0.0000 C=    0.0000
 XYZ=   18.6029    7.7375   27.1083 Q=   -0.8340 A=    0.0000 R=    0.0000 C=    0.0000
 XYZ=   18.9680    7.1889   27.8026 Q=    0.4170 A=    0.0000 R=    0.0000 C=    0.0000
 XYZ=   19.1291    7.5295   26.3363 Q=    0.4170 A=    0.0000 R=    0.0000 C=    0.0000
 XYZ=    8.6538   15.1677   16.6430 Q=   -0.8340 A=    0.0000 R=    0.0000 C=    0.0000
 XYZ=    9.0388   15.2258   15.7685 Q=    0.4170 A=    0.0000 R=    0.0000 C=    0.0000
 XYZ=    8.0969   15.9432   16.7120 Q=    0.4170 A=    0.0000 R=    0.0000 C=    0.0000
 XYZ=   29.8812   15.7151   17.3231 Q=   -0.8340 A=    0.0000 R=    0.0000 C=    0.0000
 XYZ=   30.7104   15.2381   17.3585 Q=    0.4170 A=    0.0000 R=    0.0000 C=    0.0000
 XYZ=   29.5267   15.6461   18.2095 Q=    0.4170 A=    0.0000 R=    0.0000 C=    0.0000
 XYZ=   11.3072   20.4791   23.5752 Q=   -0.8340 A=    0.0000 R=    0.0000 C=    0.0000
 XYZ=   10.8936   19.9491   22.8939 Q=    0.4170 A=    0.0000 R=    0.0000 C=    0.0000
 XYZ=   11.0001   21.3698   23.4059 Q=    0.4170 A=    0.0000 R=    0.0000 C=    0.0000
 XYZ=   19.1609   15.7746   29.9334 Q=   -0.8340 A=    0.0000 R=    0.0000 C=    0.0000
 XYZ=   18.7678   16.4104   30.5313 Q=    0.4170 A=    0.0000 R=    0.0000 C=    0.0000
 XYZ=   18.6472   15.8517   29.1294 Q=    0.4170 A=    0.0000 R=    0.0000 C=    0.0000
 XYZ=   21.5614   24.6442   17.7721 Q=   -0.8340 A=    0.0000 R=    0.0000 C=    0.0000
 XYZ=   21.2659   24.8260   16.8799 Q=    0.4170 A=    0.0000 R=    0.0000 C=    0.0000
 XYZ=   20.9988   25.1852   18.3261 Q=    0.4170 A=    0.0000 R=    0.0000 C=    0.0000
 XYZ=   10.3614   10.4040    4.5165 Q=   -0.8340 A=    0.0000 R=    0.0000 C=    0.0000
 XYZ=   10.4083    9.7452    5.2093 Q=    0.4170 A=    0.0000 R=    0.0000 C=    0.0000
 XYZ=   10.7311    9.9703    3.7475 Q=    0.4170 A=    0.0000 R=    0.0000 C=    0.0000
 XYZ=   11.9222    5.6569   17.4233 Q=   -0.8340 A=    0.0000 R=    0.0000 C=    0.0000
 XYZ=   11.8066    4.8346   17.8994 Q=    0.4170 A=    0.0000 R=    0.0000 C=    0.0000
 XYZ=   12.2801    6.2620   18.0729 Q=    0.4170 A=    0.0000 R=    0.0000 C=    0.0000
 XYZ=    3.4726   13.8079   13.6757 Q=   -0.8340 A=    0.0000 R=    0.0000 C=    0.0000
 XYZ=    2.6188   13.7149   13.2531 Q=    0.4170 A=    0.0000 R=    0.0000 C=    0.0000
 XYZ=    3.9800   14.3529   13.0742 Q=    0.4170 A=    0.0000 R=    0.0000 C=    0.0000
 XYZ=   15.3561   12.7794    8.3006 Q=   -0.8340 A=    0.0000 R=    0.0000 C=    0.0000
 XYZ=   15.5367   11.9604    8.7618 Q=    0.4170 A=    0.0000 R=    0.0000 C=    0.0000
 XYZ=   14.4076   12.7782    8.1717 Q=    0.4170 A=    0.0000 R=    0.0000 C=    0.0000
 XYZ=   24.5789   22.4165   22.0464 Q=   -0.8340 A=    0.0000 R=    0.0000 C=    0.0000
 XYZ=   24.4224   22.4265   21.1022 Q=    0.4170 A=    0.0000 R=    0.0000 C=    0.0000
 XYZ=   23.9574   21.7726   22.3859 Q=    0.4170 A=    0.0000 R=    0.0000 C=    0.0000
 XYZ=   24.3006    4.7345   12.8249 Q=   -0.8340 A=    0.0000 R=    0.0000 C=    0.0000
 XYZ=   24.9230    4.1247   13.2212 Q=    0.4170 A=    0.0000 R=    0.0000 C=    0.0000
 XYZ=   24.1054    5.3634   13.5196 Q=    0.4170 A=    0.0000 R=    0.0000 C=    0.0000
 XYZ=   16.6649    9.5078   27.2612 Q=   -0.8340 A=    0.0000 R=    0.0000 C=    0.0000
 XYZ=   17.4699    8.9946   27.1916 Q=    0.4170 A=    0.0000 R=    0.0000 C=    0.0000
 XYZ=   15.9620    8.8682   27.1466 Q=    0.4170 A=    0.0000 R=    0.0000 C=    0.0000
 XYZ=   18.4662    8.5698    5.0119 Q=   -0.8340 A=    0.0000 R=    0.0000 C=    0.0000
 XYZ=   18.4493    9.2285    5.7063 Q=    0.4170 A=    0.0000 R=    0.0000 C=    0.0000
 XYZ=   19.0341    8.9451    4.3389 Q=    0.4170 A=    0.0000 R=    0.0000 C=    0.0000
 XYZ=   11.1010   29.0618   17.4853 Q=   -0.8340 A=    0.0000 R=    0.0000 C=    0.0000
 XYZ=   11.3384   29.3189   16.5944 Q=    0.4170 A=    0.0000 R=    0.0000 C=    0.0000
 XYZ=   11.3080   28.1283   17.5289 Q=    0.4170 A=    0.0000 R=    0.0000 C=    0.0000
 XYZ=    8.5774   22.3239   21.0144 Q=   -0.8340 A=    0.0000 R=    0.0000 C=    0.0000
 XYZ=    7.9845   23.0696   21.1074 Q=    0.4170 A=    0.0000 R=    0.0000 C=    0.0000
 XYZ=    8.7383   22.2611   20.0729 Q=    0.4170 A=    0.0000 R=    0.0000 C=    0.0000
 XYZ=   18.6608   13.4908    8.1606 Q=   -0.8340 A=    0.0000 R=    0.0000 C=    0.0000
 XYZ=   18.2321   12.6371    8.2219 Q=    0.4170 A=    0.0000 R=    0.0000 C=    0.0000
 XYZ=   18.8594   13.7253    9.0671 Q=    0.4170 A=    0.0000 R=    0.0000 C=    0.0000
 XYZ=   18.3073    8.0275   19.2189 Q=   -0.8340 A=    0.0000 R=    0.0000 C=    0.0000
 XYZ=   18.6650    8.6539   18.5897 Q=    0.4170 A=    0.0000 R=    0.0000 C=    0.0000
 XYZ=   18.2791    8.5080   20.0463 Q=    0.4170 A=    0.0000 R=    0.0000 C=    0.0000
 XYZ=   22.5808   28.6650   18.0170 Q=   -0.8340 A=    0.0000 R=    0.0000 C=    0.0000
 XYZ=   22.2016   28.6425   18.8956 Q=    0.4170 A=    0.0000 R=    0.0000 C=    0.0000
 XYZ=   22.7299   29.5945   17.8437 Q=    0.4170 A=    0.0000 R=    0.0000 C=    0.0000
 XYZ=   25.9956   10.1011   12.1105 Q=   -0.8340 A=    0.0000 R=    0.0000 C=    0.0000
 XYZ=   26.3210   10.1832   13.0069 Q=    0.4170 A=    0.0000 R=    0.0000 C=    0.0000
 XYZ=   26.5487   10.6919   11.5994 Q=    0.4170 A=    0.0000 R=    0.0000 C=    0.0000
 XYZ=   17.6393   18.5904   29.9994 Q=   -0.8340 A=    0.0000 R=    0.0000 C=    0.0000
 XYZ=   17.4951   19.5308   29.8942 Q=    0.4170 A=    0.0000 R=    0.0000 C=    0.0000
 XYZ=   17.0114   18.1831   29.4026 Q=    0.4170 A=    0.0000 R=    0.0000 C=    0.0000
 XYZ=   16.3242   11.3721   29.3468 Q=   -0.8340 A=    0.0000 R=    0.0000 C=    0.0000
 XYZ=   16.6519   10.7310   28.7162 Q=    0.4170 A=    0.0000 R=    0.0000 C=    0.0000
 XYZ=   16.2824   12.1925   28.8553 Q=    0.4170 A=    0.0000 R=    0.0000 C=    0.0000
 XYZ=   12.9098    6.4601    8.4497 Q=   -0.8340 A=    0.0000 R=    0.0000 C=    0.0000
 XYZ=   13.1975    5.6884    8.9375 Q=    0.4170 A=    0.0000 R=    0.0000 C=    0.0000
 XYZ=   12.3962    6.1071    7.7232 Q=    0.4170 A=    0.0000 R=    0.0000 C=    0.0000
 XYZ=   23.9572   13.1514   15.3138 Q=   -0.8340 A=    0.0000 R=    0.0000 C=    0.0000
 XYZ=   24.0613   13.6895   16.0986 Q=    0.4170 A=    0.0000 R=    0.0000 C=    0.0000
 XYZ=   23.3881   13.6675   14.7427 Q=    0.4170 A=    0.0000 R=    0.0000 C=    0.0000
 XYZ=   16.2016   21.2839   30.1983 Q=   -0.8340 A=    0.0000 R=    0.0000 C=    0.0000
 XYZ=   15.5875   21.6518   29.5629 Q=    0.4170 A=    0.0000 R=    0.0000 C=    0.0000
 XYZ=   15.9500   21.6803   31.0325 Q=    0.4170 A=    0.0000 R=    0.0000 C=    0.0000
 XYZ=   22.4290    4.5248   17.9061 Q=   -0.8340 A=    0.0000 R=    0.0000 C=    0.0000
 XYZ=   21.7631    4.7157   17.2455 Q=    0.4170 A=    0.0000 R=    0.0000 C=    0.0000
 XYZ=   21.9470    4.1042   18.6182 Q=    0.4170 A=    0.0000 R=    0.0000 C=    0.0000
 XYZ=   10.7050   29.1703   11.9396 Q=   -0.8340 A=    0.0000 R=    0.0000 C=    0.0000
 XYZ=   10.0838   28.8018   11.3115 Q=    0.4170 A=    0.0000 R=    0.0000 C=    0.0000
 XYZ=   10.2609   29.9416   12.2920 Q=    0.4170 A=    0.0000 R=    0.0000 C=    0.0000
 XYZ=    8.8878   10.5493   11.4270 Q=   -0.8340 A=    0.0000 R=    0.0000 C=    0.0000
 XYZ=    8.6202    9.6683   11.1656 Q=    0.4170 A=    0.0000 R=    0.0000 C=    0.0000
 XYZ=    8.1353   10.8965   11.9060 Q=    0.4170 A=    0.0000 R=    0.0000 C=    0.0000
 XYZ=   10.2025   24.9437   19.4665 Q=   -0.8340 A=    0.0000 R=    0.0000 C=    0.0000
 XYZ=   10.4452   24.8643   20.3890 Q=    0.4170 A=    0.0000 R=    0.0000 C=    0.0000
 XYZ=    9.7012   24.1497   19.2811 Q=    0.4170 A=    0.0000 R=    0.0000 C=    0.0000
 XYZ=   17.6924    4.4302   13.0761 Q=   -0.8340 A=    0.0000 R=    0.0000 C=    0.0000
 XYZ=   17.3128    5.2044   12.6605 Q=    0.4170 A=    0.0000 R=    0.0000 C=    0.0000
 XYZ=   18.6359    4.5266   12.9463 Q=    0.4170 A=    0.0000 R=    0.0000 C=    0.0000
 XYZ=   15.1311   22.3329    3.8841 Q=   -0.8340 A=    0.0000 R=    0.0000 C=    0.0000
 XYZ=   14.9454   21.3939    3.8699 Q=    0.4170 A=    0.0000 R=    0.0000 C=    0.0000
 XYZ=   15.8119   22.4328    4.5495 Q=    0.4170 A=    0.0000 R=    0.0000 C=    0.0000
 XYZ=   22.5871   20.3101   22.6350 Q=   -0.8340 A=    0.0000 R=    0.0000 C=    0.0000
 XYZ=   22.3402   19.4787   23.0400 Q=    0.4170 A=    0.0000 R=    0.0000 C=    0.0000
 XYZ=   22.1148   20.9724   23.1395 Q=    0.4170 A=    0.0000 R=    0.0000 C=    0.0000
 XYZ=   25.9851   20.4892    5.9555 Q=   -0.8340 A=    0.0000 R=    0.0000 C=    0.0000
 XYZ=   25.6886   21.3688    6.1890 Q=    0.4170 A=    0.0000 R=    0.0000 C=    0.0000
 XYZ=   25.2465   20.1044    5.4835 Q=    0.4170 A=    0.0000 R=    0.0000 C=    0.0000
 XYZ=   16.3990   26.1820   23.5569 Q=   -0.8340 A=    0.0000 R=    0.0000 C=    0.0000
 XYZ=   16.5322   26.4432   24.4681 Q=    0.4170 A=    0.0000 R=    0.0000 C=    0.0000
 XYZ=   16.5088   26.9908   23.0569 Q=    0.4170 A=    0.0000 R=    0.0000 C=    0.0000
 XYZ=   19.8221   26.5771   24.8826 Q=   -0.8340 A=    0.0000 R=    0.0000 C=    0.0000
 XYZ=   20.1977   26.6813   25.7568 Q=    0.4170 A=    0.0000 R=    0.0000 C=    0.0000
 XYZ=   18.9657   27.0011   24.9373 Q=    0.4170 A=    0.0000 R=    0.0000 C=    0.0000
 XYZ=   23.7665   26.1581   19.1462 Q=   -0.8340 A=    0.0000 R=    0.0000 C=    0.0000
 XYZ=   23.1793   25.6439   18.5921 Q=    0.4170 A=    0.0000 R=    0.0000 C=    0.0000
 XYZ=   23.1832   26.7116   19.6653 Q=    0.4170 A=    0.0000 R=    0.0000 C=    0.0000
 XYZ=    6.0641   15.3027   19.8160 Q=   -0.8340 A=    0.0000 R=    0.0000 C=    0.0000
 XYZ=    5.9737   14.3509   19.8631 Q=    0.4170 A=    0.0000 R=    0.0000 C=    0.0000
 XYZ=    5.2142   15.6091   19.4997 Q=    0.4170 A=    0.0000 R=    0.0000 C=    0.0000
 XYZ=   13.0640    7.5030   19.0330 Q=   -0.8340 A=    0.0000 R=    0.0000 C=    0.0000
 XYZ=   13.6892    7.9386   18.4537 Q=    0.4170 A=    0.0000 R=    0.0000 C=    0.0000
 XYZ=   12.6576    8.2153   19.5266 Q=    0.4170 A=    0.0000 R=    0.0000 C=    0.0000
 XYZ=   20.8033    5.2110   15.8745 Q=   -0.8340 A=    0.0000 R=    0.0000 C=    0.0000
 XYZ=   20.0425    5.7047   16.1807 Q=    0.4170 A=    0.0000 R=    0.0000 C=    0.0000
 XYZ=   20.4893    4.7407   15.1022 Q=    0.4170 A=    0.0000 R=    0.0000 C=    0.0000
 XYZ=   13.6460   11.5939    1.9434 Q=   -0.8340 A=    0.0000 R=    0.0000 C=    0.0000
 XYZ=   12.8603   11.8382    2.4324 Q=    0.4170 A=    0.0000 R=    0.0000 C=    0.0000
 XYZ=   14.3482   11.6103    2.5937 Q=    0.4170 A=    0.0000 R=    0.0000 C=    0.0000
 XYZ=   18.4307   25.0167   15.5767 Q=   -0.8340 A=    0.0000 R=    0.0000 C=    0.0000
 XYZ=   18.8050   24.8585   16.4434 Q=    0.4170 A=    0.0000 R=    0.0000 C=    0.0000
 XYZ=   19.0063   25.6721   15.1827 Q=    0.4170 A=    0.0000 R=    0.0000 C=    0.0000
 XYZ=   14.1171   27.3959   16.1050 Q=   -0.8340 A=    0.0000 R=    0.0000 C=    0.0000
 XYZ=   13.4979   27.1281   16.7840 Q=    0.4170 A=    0.0000 R=    0.0000 C=    0.0000
 XYZ=   14.8306   26.7608   16.1668 Q=    0.4170 A=    0.0000 R=    0.0000 C=    0.0000
 XYZ=    9.5246   10.0292   21.8281 Q=   -0.8340 A=    0.0000 R=    0.0000 C=    0.0000
 XYZ=    9.0012    9.6937   21.1003 Q=    0.4170 A=    0.0000 R=    0.0000 C=    0.0000
 XYZ=    9.2285    9.5278   22.5878 Q=    0.4170 A=    0.0000 R=    0.0000 C=    0.0000
 XYZ=   23.7892   25.0996    7.7550 Q=   -0.8340 A=    0.0000 R=    0.0000 C=    0.0000
 XYZ=   24.1035   25.9732    7.5224 Q=    0.4170 A=    0.0000 R=    0.0000 C=    0.0000
 XYZ=   22.8399   25.1977    7.8284 Q=    0.4170 A=    0.0000 R=    0.0000 C=    0.0000
 XYZ=   12.4476   16.4723   30.2559 Q=   -0.8340 A=    0.0000 R=    0.0000 C=    0.0000
 XYZ=   12.7141   15.5616   30.3818 Q=    0.4170 A=    0.0000 R=    0.0000 C=    0.0000
 XYZ=   12.3035   16.8048   31.1419 Q=    0.4170 A=    0.0000 R=    0.0000 C=    0.0000
 XYZ=    7.2958    7.8430   14.9555 Q=   -0.8340 A=    0.0000 R=    0.0000 C=    0.0000
 XYZ=    8.0265    8.4427   14.8051 Q=    0.4170 A=    0.0000 R=    0.0000 C=    0.0000
 XYZ=    6.8887    8.1582   15.7625 Q=    0.4170 A=    0.0000 R=    0.0000 C=    0.0000
 XYZ=   19.9047   20.2957    2.3931 Q=   -0.8340 A=    0.0000 R=    0.0000 C=    0.0000
 XYZ=   20.3918   20.7405    1.6994 Q=    0.4170 A=    0.0000 R=    0.0000 C=    0.0000
 XYZ=   19.4093   20.9926    2.8233 Q=    0.4170 A=    0.0000 R=    0.0000 C=    0.0000
 XYZ=   10.6598    6.9663   15.2465 Q=   -0.8340 A=    0.0000 R=    0.0000 C=    0.0000
 XYZ=   11.2148    6.4930   15.8664 Q=    0.4170 A=    0.0000 R=    0.0000 C=    0.0000
 XYZ=   10.4721    6.3290   14.5574 Q=    0.4170 A=    0.0000 R=    0.0000 C=    0.0000
 XYZ=    7.3150   14.2742   13.3455 Q=   -0.8340 A=    0.0000 R=    0.0000 C=    0.0000
 XYZ=    7.1939   13.4207   13.7615 Q=    0.4170 A=    0.0000 R=    0.0000 C=    0.0000
 XYZ=    8.2458   14.4665   13.4587 Q=    0.4170 A=    0.0000 R=    0.0000 C=    0.0000
 XYZ=    6.3010   10.2719   21.9804 Q=   -0.8340 A=    0.0000 R=    0.0000 C=    0.0000
 XYZ=    6.4407   11.2061   22.1354 Q=    0.4170 A=    0.0000 R=    0.0000 C=    0.0000
 XYZ=    6.9513    9.8373   22.5321 Q=    0.4170 A=    0.0000 R=    0.0000 C=    0.0000
 XYZ=   12.1393   29.3891   21.4172 Q=   -0.8340 A=    0.0000 R=    0.0000 C=    0.0000
 XYZ=   12.0737   28.5213   21.0185 Q=    0.4170 A=    0.0000 R=    0.0000 C=    0.0000
 XYZ=   12.0782   29.9970   20.6804 Q=    0.4170 A=    0.0000 R=    0.0000 C=    0.0000
 XYZ=    7.8987   25.4330    9.6370 Q=   -0.8340 A=    0.0000 R=    0.0000 C=    0.0000
 XYZ=    7.4158   25.7666    8.8808 Q=    0.4170 A=    0.0000 R=    0.0000 C=    0.0000
 XYZ=    8.7724   25.2392    9.2973 Q=    0.4170 A=    0.0000 R=    0.0000 C=    0.0000
 XYZ=   16.0523    9.4864   14.1271 Q=   -0.8340 A=    0.0000 R=    0.0000 C=    0.0000
 XYZ=   16.5603    8.6803   14.2183 Q=    0.4170 A=    0.0000 R=    0.0000 C=    0.0000
 XYZ=   16.7009   10.1555   13.9083 Q=    0.4170 A=    0.0000 R=    0.0000 C=    0.0000
 XYZ=   21.6012   17.7572   27.0556 Q=   -0.8340 A=    0.0000 R=    0.0000 C=    0.0000
 XYZ=   21.0178   18.4114   27.4403 Q=    0.4170 A=    0.0000 R=    0.0000 C=    0.0000
 XYZ=   21.1383   17.4521   26.2753 Q=    0.4170 A=    0.0000 R=    0.0000 C=    0.0000
 XYZ=   25.5984   23.5311    6.6014 Q=   -0.8340 A=    0.0000 R=    0.0000 C=    0.0000
 XYZ=   26.2616   24.0910    7.0050 Q=    0.4170 A=    0.0000 R=    0.0000 C=    0.0000
 XYZ=   24.7696   23.8366    6.9702 Q=    0.4170 A=    0.0000 R=    0.0000 C=    0.0000
 XYZ=   16.9583    9.3310   23.7262 Q=   -0.8340 A=    0.0000 R=    0.0000 C=    0.0000
 XYZ=   17.8043    9.5152   24.1342 Q=    0.4170 A=    0.0000 R=    0.0000 C=    0.0000
 XYZ=   17.0882    9.5376   22.8006 Q=    0.4170 A=    0.0000 R=    0.0000 C=    0.0000
 XYZ=   14.3841   25.7369   27.1354 Q=   -0.8340 A=    0.0000 R=    0.0000 C=    0.0000
 XYZ=   14.1203   26.6489   27.0133 Q=    0.4170 A=    0.0000 R=    0.0000 C=    0.0000
 XYZ=   15.0250   25.7656   27.8458 Q=    0.4170 A=    0.0000 R=    0.0000 C=    0.0000
 XYZ=   18.6622   18.8822   23.3807 Q=   -0.8340 A=    0.0000 R=    0.0000 C=    0.0000
 XYZ=   19.1913   18.2393   22.9085 Q=    0.4170 A=    0.0000 R=    0.0000 C=    0.0000
 XYZ=   19.2964   19.5179   23.7122 Q=    0.4170 A=    0.0000 R=    0.0000 C=    0.0000
 XYZ=    5.2294   24.8801   14.1486 Q=   -0.8340 A=    0.0000 R=    0.0000 C=    0.0000
 XYZ=    4.5677   24.4828   14.7148 Q=    0.4170 A=    0.0000 R=    0.0000 C=    0.0000
 XYZ=    4.9830   24.6087   13.2644 Q=    0.4170 A=    0.0000 R=    0.0000 C=    0.0000
 XYZ=    7.5190   18.1312   15.8507 Q=   -0.8340 A=    0.0000 R=    0.0000 C=    0.0000
 XYZ=    7.0229   18.4610   16.5999 Q=    0.4170 A=    0.0000 R=    0.0000 C=    0.0000
 XYZ=    6.9317   17.5019   15.4321 Q=    0.4170 A=    0.0000 R=    0.0000 C=    0.0000
 XYZ=   15.8305   12.6297   23.5014 Q=   -0.8340 A=    0.0000 R=    0.0000 C=    0.0000
 XYZ=   16.3425   13.3190   23.9245 Q=    0.4170 A=    0.0000 R=    0.0000 C=    0.0000
 XYZ=   16.4738   12.1225   23.0062 Q=    0.4170 A=    0.0000 R=    0.0000 C=    0.0000
 XYZ=   20.4790    4.9063   12.6723 Q=   -0.8340 A=    0.0000 R=    0.0000 C=    0.0000
 XYZ=   20.9944    5.4588   12.0847 Q=    0.4170 A=    0.0000 R=    0.0000 C=    0.0000
 XYZ=   20.8010    4.0193   12.5115 Q=    0.4170 A=    0.0000 R=    0.0000 C=    0.0000
 XYZ=   26.8861   27.1356   14.5386 Q=   -0.8340 A=    0.0000 R=    0.0000 C=    0.0000
 XYZ=   26.7956   27.1494   15.4914 Q=    0.4170 A=    0.0000 R=    0.0000 C=    0.0000
 XYZ=   27.6867   27.6312   14.3664 Q=    0.4170 A=    0.0000 R=    0.0000 C=    0.0000
 XYZ=   13.4947   12.6438   26.5616 Q=   -0.8340 A=    0.0000 R=    0.0000 C=    0.0000
 XYZ=   13.7768   11.7655   26.8170 Q=    0.4170 A=    0.0000 R=    0.0000 C=    0.0000
 XYZ=   12.9937   12.5104   25.7569 Q=    0.4170 A=    0.0000 R=    0.0000 C=    0.0000
 XYZ=   14.1557   24.1086   17.8010 Q=   -0.8340 A=    0.0000 R=    0.0000 C=    0.0000
 XYZ=   14.6891   24.1933   17.0108 Q=    0.4170 A=    0.0000 R=    0.0000 C=    0.0000
 XYZ=   14.0450   23.1648   17.9158 Q=    0.4170 A=    0.0000 R=    0.0000 C=    0.0000
 XYZ=    4.6851    6.6794   14.3804 Q=   -0.8340 A=    0.0000 R=    0.0000 C=    0.0000
 XYZ=    4.4193    7.5221   14.0124 Q=    0.4170 A=    0.0000 R=    0.0000 C=    0.0000
 XYZ=    5.5967    6.8086   14.6418 Q=    0.4170 A=    0.0000 R=    0.0000 C=    0.0000
 XYZ=   23.5935   15.9376   27.3698 Q=   -0.8340 A=    0.0000 R=    0.0000 C=    0.0000
 XYZ=   24.3706   16.2796   27.8119 Q=    0.4170 A=    0.0000 R=    0.0000 C=    0.0000
 XYZ=   23.0098   16.6923   27.2924 Q=    0.4170 A=    0.0000 R=    0.0000 C=    0.0000
 XYZ=   16.3552   22.3475   20.8410 Q=   -0.8340 A=    0.0000 R=    0.0000 C=    0.0000
 XYZ=   16.2451   22.5080   21.7782 Q=    0.4170 A=    0.0000 R=    0.0000 C=    0.0000
 XYZ=   16.4759   21.4004   20.7723 Q=    0.4170 A=    0.0000 R=    0.0000 C=    0.0000
 XYZ=    4.0736   17.7050   13.6159 Q=   -0.8340 A=    0.0000 R=    0.0000 C=    0.0000
 XYZ=    4.4710   17.0948   12.9947 Q=    0.4170 A=    0.0000 R=    0.0000 C=    0.0000
 XYZ=    3.2456   17.9579   13.2076 Q=    0.4170 A=    0.0000 R=    0.0000 C=    0.0000
 XYZ=   24.7307    8.2521   10.4415 Q=   -0.8340 A=    0.0000 R=    0.0000 C=    0.0000
 XYZ=   25.1441    9.0213   10.8337 Q=    0.4170 A=    0.0000 R=    0.0000 C=    0.0000
 XYZ=   24.1294    8.6097    9.7882 Q=    0.4170 A=    0.0000 R=    0.0000 C=    0.0000
 XYZ=   16.4444   30.2954   20.0753 Q=   -0.8340 A=    0.0000 R=    0.0000 C=    0.0000
 XYZ=   15.7951   30.9851   19.9377 Q=    0.4170 A=    0.0000 R=    0.0000 C=    0.0000
 XYZ=   16.0107   29.4950   19.7794 Q=    0.4170 A=    0.0000 R=    0.0000 C=    0.0000
 XYZ=   21.1922   13.1358    7.2264 Q=   -0.8340 A=    0.0000 R=    0.0000 C=    0.0000
 XYZ=   21.3885   12.9108    6.3170 Q=    0.4170 A=    0.0000 R=    0.0000 C=    0.0000
 XYZ=   20.2387   13.2151    7.2536 Q=    0.4170 A=    0.0000 R=    0.0000 C=    0.0000
 XYZ=   12.0943   26.0712   14.3252 Q=   -0.8340 A=    0.0000 R=    0.0000 C=    0.0000
 XYZ=   11.9272   25.1292   14.3570 Q=    0.4170 A=    0.0000 R=    0.0000 C=    0.0000
 XYZ=   12.3088   26.3075   15.2276 Q=    0.4170 A=    0.0000 R=    0.0000 C=    0.0000
 XYZ=    6.3286    7.5108   20.8632 Q=   -0.8340 A=    0.0000 R=    0.0000 C=    0.0000
 XYZ=    6.2465    8.1093   21.6057 Q=    0.4170 A=    0.0000 R=    0.0000 C=    0.0000
 XYZ=    6.2765    6.6377   21.2519 Q=    0.4170 A=    0.0000 R=    0.0000 C=    0.0000
 XYZ=   11.7474   11.5509   11.4114 Q=   -0.8340 A=    0.0000 R=    0.0000 C=    0.0000
 XYZ=   10.9264   11.0967   11.2217 Q=    0.4170 A=    0.0000 R=    0.0000 C=    0.0000
 XYZ=   11.7719   11.6133   12.3662 Q=    0.4170 A=    0.0000 R=    0.0000 C=    0.0000
 XYZ=   16.9320   11.6439   12.3997 Q=   -0.8340 A=    0.0000 R=    0.0000 C=    0.0000
 XYZ=   16.3761   11.3417   11.6814 Q=    0.4170 A=    0.0000 R=    0.0000 C=    0.0000
 XYZ=   17.6933   11.0642   12.3742 Q=    0.4170 A=    0.0000 R=    0.0000 C=    0.0000
 XYZ=   18.8166   12.6607    3.7263 Q=   -0.8340 A=    0.0000 R=    0.0000 C=    0.0000
 XYZ=   18.1849   12.7994    3.0207 Q=    0.4170 A=    0.0000 R=    0.0000 C=    0.0000
 XYZ=   19.3529   13.4535    3.7275 Q=    0.4170 A=    0.0000 R=    0.0000 C=    0.0000
 XYZ=   10.7492   24.9884   25.3654 Q=   -0.8340 A=    0.0000 R=    0.0000 C=    0.0000
 XYZ=   10.2529   24.3398   24.8662 Q=    0.4170 A=    0.0000 R=    0.0000 C=    0.0000
 XYZ=   11.3336   24.4697   25.9183 Q=    0.4170 A=    0.0000 R=    0.0000 C=    0.0000
 XYZ=   23.8467   19.4124   12.7307 Q=   -0.8340 A=    0.0000 R=    0.0000 C=    0.0000
 XYZ=   23.8746   18.7309   13.4023 Q=    0.4170 A=    0.0000 R=    0.0000 C=    0.0000
 XYZ=   24.3315   20.1446   13.1115 Q=    0.4170 A=    0.0000 R=    0.0000 C=    0.0000
 XYZ=   24.1156   27.5429   13.5734 Q=   -0.8340 A=    0.0000 R=    0.0000 C=    0.0000
 XYZ=   25.0665   27.6458   13.6118 Q=    0.4170 A=    0.0000 R=    0.0000 C=    0.0000
 XYZ=   23.8181   27.7268   14.4643 Q=    0.4170 A=    0.0000 R=    0.0000 C=    0.0000
 XYZ=    6.1951   13.6282   16.3943 Q=   -0.8340 A=    0.0000 R=    0.0000 C=    0.0000
 XYZ=    6.6506   12.8124   16.1863 Q=    0.4170 A=    0.0000 R=    0.0000 C=    0.0000
 XYZ=    6.8140   14.1171   16.9367 Q=    0.4170 A=    0.0000 R=    0.0000 C=    0.0000
 XYZ=   21.8885   28.4184   20.7344 Q=   -0.8340 A=    0.0000 R=    0.0000 C=    0.0000
 XYZ=   22.0560   27.7729   21.4210 Q=    0.4170 A=    0.0000 R=    0.0000 C=    0.0000
 XYZ=   20.9356   28.5074   20.7160 Q=    0.4170 A=    0.0000 R=    0.0000 C=    0.0000
 XYZ=   10.5737    9.3387   17.7924 Q=   -0.8340 A=    0.0000 R=    0.0000 C=    0.0000
 XYZ=   10.7553    9.8847   18.5573 Q=    0.4170 A=    0.0000 R=    0.0000 C=    0.0000
 XYZ=   10.8138    8.4536   18.0668 Q=    0.4170 A=    0.0000 R=    0.0000 C=    0.0000
 XYZ=   24.2747   11.7115   25.2014 Q=   -0.8340 A=    0.0000 R=    0.0000 C=    0.0000
 XYZ=   24.1433   10.8661   24.7721 Q=    0.4170 A=    0.0000 R=    0.0000 C=    0.0000
 XYZ=   23.6495   11.7124   25.9262 Q=    0.4170 A=    0.0000 R=    0.0000 C=    0.0000
 XYZ=   11.1420   24.6732    4.6984 Q=   -0.8340 A=    0.0000 R=    0.0000 C=    0.0000
 XYZ=   11.7458   24.5242    3.9708 Q=    0.4170 A=    0.0000 R=    0.0000 C=    0.0000
 XYZ=   11.2847   23.9302    5.2847 Q=    0.4170 A=    0.0000 R=    0.0000 C=    0.0000
 XYZ=   13.7612    4.9459   13.0064 Q=   -0.8340 A=    0.0000 R=    0.0000 C=    0.0000
 XYZ=   13.7922    5.2836   13.9016 Q=    0.4170 A=    0.0000 R=    0.0000 C=    0.0000
 XYZ=   13.3836    4.0706   13.0931 Q=    0.4170 A=    0.0000 R=    0.0000 C=    0.0000
 XYZ=   23.4337    9.0076   24.8345 Q=   -0.8340 A=    0.0000 R=    0.0000 C=    0.0000
 XYZ=   24.2512    8.5882   25.1028 Q=    0.4170 A=    0.0000 R=    0.0000 C=    0.0000
 XYZ=   22.9367    9.1061   25.6465 Q=    0.4170 A=    0.0000 R=    0.0000 C=    0.0000
 XYZ=   17.4674   24.5294    9.4040 Q=   -0.8340 A=    0.0000 R=    0.0000 C=    0.0000
 XYZ=   16.9152   24.2382    8.6784 Q=    0.4170 A=    0.0000 R=    0.0000 C=    0.0000
 XYZ=   17.0418   24.1774   10.1858 Q=    0.4170 A=    0.0000 R=    0.0000 C=    0.0000
 XYZ=   18.9960   10.0192   17.5512 Q=   -0.8340 A=    0.0000 R=    0.0000 C=    0.0000
 XYZ=   19.1921    9.6202   16.7035 Q=    0.4170 A=    0.0000 R=    0.0000 C=    0.0000
 XYZ=   19.7221   10.6235   17.7057 Q=    0.4170 A=    0.0000 R=    0.0000 C=    0.0000
 XYZ=   29.6493   22.2431   15.4313 Q=   -0.8340 A=    0.0000 R=    0.0000 C=    0.0000
 XYZ=   29.9879   23.0998   15.1712 Q=    0.4170 A=    0.0000 R=    0.0000 C=    0.0000
 XYZ=   29.0575   21.9933   14.7217 Q=    0.4170 A=    0.0000 R=    0.0000 C=    0.0000
 XYZ=   11.0245    6.7632   24.8573 Q=   -0.8340 A=    0.0000 R=    0.0000 C=    0.0000
 XYZ=   10.5683    7.0310   25.6550 Q=    0.4170 A=    0.0000 R=    0.0000 C=    0.0000
 XYZ=   11.8547    6.4002   25.1660 Q=    0.4170 A=    0.0000 R=    0.0000 C=    0.0000
 XYZ=   17.9058    4.9285   23.0876 Q=   -0.8340 A=    0.0000 R=    0.0000 C=    0.0000
 XYZ=   18.5141    5.3905   22.5108 Q=    0.4170 A=    0.0000 R=    0.0000 C=    0.0000
 XYZ=   17.2567    4.5475   22.4963 Q=    0.4170 A=    0.0000 R=    0.0000 C=    0.0000
 XYZ=    5.4190   18.5076   20.5485 Q=   -0.8340 A=    0.0000 R=    0.0000 C=    0.0000
 XYZ=    4.6971   18.2908   21.1383 Q=    0.4170 A=    0.0000 R=    0.0000 C=    0.0000
 XYZ=    6.1904   18.5382   21.1144 Q=    0.4170 A=    0.0000 R=    0.0000 C=    0.0000
 XYZ=    4.6851   24.7526   22.1955 Q=   -0.8340 A=    0.0000 R=    0.0000 C=    0.0000
 XYZ=    4.3170   23.8759   22.3055 Q=    0.4170 A=    0.0000 R=    0.0000 C=    0.0000
 XYZ=    5.6128   24.6519   22.4088 Q=    0.4170 A=    0.0000 R=    0.0000 C=    0.0000
 XYZ=    6.2751   23.5240   19.6373 Q=   -0.8340 A=    0.0000 R=    0.0000 C=    0.0000
 XYZ=    5.5852   24.1483   19.8619 Q=    0.4170 A=    0.0000 R=    0.0000 C=    0.0000
 XYZ=    6.7927   23.9694   18.9666 Q=    0.4170 A=    0.0000 R=    0.0000 C=    0.0000
 XYZ=   17.8255   22.1259   25.1680 Q=   -0.8340 A=    0.0000 R=    0.0000 C=    0.0000
 XYZ=   17.2314   22.7772   25.5408 Q=    0.4170 A=    0.0000 R=    0.0000 C=    0.0000
 XYZ=   18.2682   22.5854   24.4544 Q=    0.4170 A=    0.0000 R=    0.0000 C=    0.0000
 XYZ=   15.5702   23.4893   26.2671 Q=   -0.8340 A=    0.0000 R=    0.0000 C=    0.0000
 XYZ=   15.1954   22.7871   26.7988 Q=    0.4170 A=    0.0000 R=    0.0000 C=    0.0000
 XYZ=   15.1080   24.2780   26.5510 Q=    0.4170 A=    0.0000 R=    0.0000 C=    0.0000
 XYZ=   22.8615    9.6244    4.9841 Q=   -0.8340 A=    0.0000 R=    0.0000 C=    0.0000
 XYZ=   23.5974   10.2265    4.8738 Q=    0.4170 A=    0.0000 R=    0.0000 C=    0.0000
 XYZ=   22.7150    9.2620    4.1103 Q=    0.4170 A=    0.0000 R=    0.0000 C=    0.0000
 XYZ=   18.9374   23.3213   13.3054 Q=   -0.8340 A=    0.0000 R=    0.0000 C=    0.0000
 XYZ=   18.9944   23.4890   14.2460 Q=    0.4170 A=    0.0000 R=    0.0000 C=    0.0000
 XYZ=   19.1021   24.1724   12.8994 Q=    0.4170 A=    0.0000 R=    0.0000 C=    0.0000
 XYZ=   20.6490   10.6929    6.1124 Q=   -0.8340 A=    0.0000 R=    0.0000 C=    0.0000
 XYZ=   20.6420   10.5621    7.0606 Q=    0.4170 A=    0.0000 R=    0.0000 C=    0.0000
 XYZ=   21.5661   10.5820    5.8616 Q=    0.4170 A=    0.0000 R=    0.0000 C=    0.0000
 XYZ=   14.0625   21.2422   18.3495 Q=   -0.8340 A=    0.0000 R=    0.0000 C=    0.0000
 XYZ=   14.9697   20.9690   18.2128 Q=    0.4170 A=    0.0000 R=    0.0000 C=    0.0000
 XYZ=   13.5757   20.4228   18.4372 Q=    0.4170 A=    0.0000 R=    0.0000 C=    0.0000
 XYZ=    1.8712   21.0583   19.9263 Q=   -0.8340 A=    0.0000 R=    0.0000 C=    0.0000
 XYZ=    1.4246   20.3389   19.4800 Q=    0.4170 A=    0.0000 R=    0.0000 C=    0.0000
 XYZ=    2.7301   21.1049   19.5066 Q=    0.4170 A=    0.0000 R=    0.0000 C=    0.0000
 XYZ=   26.6066   11.8173   14.4292 Q=   -0.8340 A=    0.0000 R=    0.0000 C=    0.0000
 XYZ=   27.1533   12.4961   14.0333 Q=    0.4170 A=    0.0000 R=    0.0000 C=    0.0000
 XYZ=   26.0611   12.2865   15.0605 Q=    0.4170 A=    0.0000 R=    0.0000 C=    0.0000
 XYZ=    3.9798   15.3521   17.7333 Q=   -0.8340 A=    0.0000 R=    0.0000 C=    0.0000
 XYZ=    4.6011   14.9818   17.1063 Q=    0.4170 A=    0.0000 R=    0.0000 C=    0.0000
 XYZ=    3.2346   14.7515   17.7159 Q=    0.4170 A=    0.0000 R=    0.0000 C=    0.0000
 XYZ=   25.9265   27.3886   19.8918 Q=   -0.8340 A=    0.0000 R=    0.0000 C=    0.0000
 XYZ=   25.2876   26.8289   19.4506 Q=    0.4170 A=    0.0000 R=    0.0000 C=    0.0000
 XYZ=   26.5648   26.7788   20.2618 Q=    0.4170 A=    0.0000 R=    0.0000 C=    0.0000
 XYZ=   16.3863    6.0977   26.0329 Q=   -0.8340 A=    0.0000 R=    0.0000 C=    0.0000
 XYZ=   16.9766    6.4144   25.3492 Q=    0.4170 A=    0.0000 R=    0.0000 C=    0.0000
 XYZ=   16.8896    5.4253   26.4920 Q=    0.4170 A=    0.0000 R=    0.0000 C=    0.0000
 XYZ=   10.1553    5.1919   12.8598 Q=   -0.8340 A=    0.0000 R=    0.0000 C=    0.0000
 XYZ=   10.6191    4.4973   13.3273 Q=    0.4170 A=    0.0000 R=    0.0000 C=    0.0000
 XYZ=   10.8401    5.6552   12.3774 Q=    0.4170 A=    0.0000 R=    0.0000 C=    0.0000
 XYZ=   26.7034   18.9812   10.8275 Q=   -0.8340 A=    0.0000 R=    0.0000 C=    0.0000
 XYZ=   26.2747   18.8705    9.9789 Q=    0.4170 A=    0.0000 R=    0.0000 C=    0.0000
 XYZ=   27.6278   19.1094   10.6145 Q=    0.4170 A=    0.0000 R=    0.0000 C=    0.0000
 XYZ=   13.4724   20.9113    6.5498 Q=   -0.8340 A=    0.0000 R=    0.0000 C=    0.0000
 XYZ=   14.2243   20.9453    7.1412 Q=    0.4170 A=    0.0000 R=    0.0000 C=    0.0000
 XYZ=   13.8159   20.5189    5.7472 Q=    0.4170 A=    0.0000 R=    0.0000 C=    0.0000
 XYZ=   25.4685   17.3531   19.4075 Q=   -0.8340 A=    0.0000 R=    0.0000 C=    0.0000
 XYZ=   25.4601   16.5747   19.9645 Q=    0.4170 A=    0.0000 R=    0.0000 C=    0.0000
 XYZ=   26.1161   17.1569   18.7306 Q=    0.4170 A=    0.0000 R=    0.0000 C=    0.0000
 XYZ=   22.1773   10.6026   18.9018 Q=   -0.8340 A=    0.0000 R=    0.0000 C=    0.0000
 XYZ=   22.9196   10.9087   19.4229 Q=    0.4170 A=    0.0000 R=    0.0000 C=    0.0000
 XYZ=   21.7797    9.9123   19.4326 Q=    0.4170 A=    0.0000 R=    0.0000 C=    0.0000
 XYZ=   19.7824   30.4230   16.0163 Q=   -0.8340 A=    0.0000 R=    0.0000 C=    0.0000
 XYZ=   19.3363   30.5969   16.8452 Q=    0.4170 A=    0.0000 R=    0.0000 C=    0.0000
 XYZ=   20.6372   30.8432   16.1111 Q=    0.4170 A=    0.0000 R=    0.0000 C=    0.0000
 XYZ=   22.1883   15.4801   11.1130 Q=   -0.8340 A=    0.0000 R=    0.0000 C=    0.0000
 XYZ=   22.2321   16.4321   11.0229 Q=    0.4170 A=    0.0000 R=    0.0000 C=    0.0000
 XYZ=   21.6124   15.1980   10.4025 Q=    0.4170 A=    0.0000 R=    0.0000 C=    0.0000
 XYZ=   25.4480   14.6022   10.8990 Q=   -0.8340 A=    0.0000 R=    0.0000 C=    0.0000
 XYZ=   25.9977   15.2585   11.3271 Q=    0.4170 A=    0.0000 R=    0.0000 C=    0.0000
 XYZ=   24.5565   14.9378   10.9928 Q=    0.4170 A=    0.0000 R=    0.0000 C=    0.0000
 XYZ=   24.9438   14.4111   17.5437 Q=   -0.8340 A=    0.0000 R=    0.0000 C=    0.0000
 XYZ=   24.4689   14.7889   18.2840 Q=    0.4170 A=    0.0000 R=    0.0000 C=    0.0000
 XYZ=   25.4763   13.7158   17.9299 Q=    0.4170 A=    0.0000 R=    0.0000 C=    0.0000
 XYZ=   22.9625   15.3545    7.9311 Q=   -0.8340 A=    0.0000 R=    0.0000 C=    0.0000
 XYZ=   22.3082   16.0471    8.0223 Q=    0.4170 A=    0.0000 R=    0.0000 C=    0.0000
 XYZ=   22.4975   14.6410    7.4943 Q=    0.4170 A=    0.0000 R=    0.0000 C=    0.0000
 XYZ=   24.4012   16.9742   14.8572 Q=   -0.8340 A=    0.0000 R=    0.0000 C=    0.0000
 XYZ=   23.8584   17.2027   15.6118 Q=    0.4170 A=    0.0000 R=    0.0000 C=    0.0000
 XYZ=   25.2390   16.7081   15.2360 Q=    0.4170 A=    0.0000 R=    0.0000 C=    0.0000
 XYZ=   11.3048   16.9184   21.8239 Q=   -0.8340 A=    0.0000 R=    0.0000 C=    0.0000
 XYZ=   10.9688   16.1029   21.4521 Q=    0.4170 A=    0.0000 R=    0.0000 C=    0.0000
 XYZ=   12.0164   16.6433   22.4020 Q=    0.4170 A=    0.0000 R=    0.0000 C=    0.0000
 XYZ=   21.5809   29.6886   13.6455 Q=   -0.8340 A=    0.0000 R=    0.0000 C=    0.0000
 XYZ=   22.3510   29.9013   13.1184 Q=    0.4170 A=    0.0000 R=    0.0000 C=    0.0000
 XYZ=   21.1114   30.5185   13.7302 Q=    0.4170 A=    0.0000 R=    0.0000 C=    0.0000
 XYZ=   23.7990   19.7693    4.7939 Q=   -0.8340 A=    0.0000 R=    0.0000 C=    0.0000
 XYZ=   23.6400   19.8630    3.8547 Q=    0.4170 A=    0.0000 R=    0.0000 C=    0.0000
 XYZ=   23.3763   18.9429    5.0276 Q=    0.4170 A=    0.0000 R=    0.0000 C=    0.0000
 XYZ=   13.8487    5.5162   25.2987 Q=   -0.8340 A=    0.0000 R=    0.0000 C=    0.0000
 XYZ=   13.8518    4.9311   24.5412 Q=    0.4170 A=    0.0000 R=    0.0000 C=    0.0000
 XYZ=   14.7498    5.8332   25.3608 Q=    0.4170 A=    0.0000 R=    0.0000 C=    0.0000
 XYZ=    6.5737   26.8204   20.1065 Q=   -0.8340 A=    0.0000 R=    0.0000 C=    0.0000
 XYZ=    7.3819   27.3264   20.0229 Q=    0.4170 A=    0.0000 R=    0.0000 C=    0.0000
 XYZ=    6.8617   25.9537   20.3932 Q=    0.4170 A=    0.0000 R=    0.0000 C=    0.0000
 XYZ=   15.3061   27.9264   19.6663 Q=   -0.8340 A=    0.0000 R=    0.0000 C=    0.0000
 XYZ=   15.8766   27.1699   19.8018 Q=    0.4170 A=    0.0000 R=    0.0000 C=    0.0000
 XYZ=   14.4333   27.6148   19.9059 Q=    0.4170 A=    0.0000 R=    0.0000 C=    0.0000
 XYZ=   26.2390    7.4141   20.2563 Q=   -0.8340 A=    0.0000 R=    0.0000 C=    0.0000
 XYZ=   26.7440    6.7391   19.8029 Q=    0.4170 A=    0.0000 R=    0.0000 C=    0.0000
 XYZ=   25.3599    7.3471   19.8837 Q=    0.4170 A=    0.0000 R=    0.0000 C=    0.0000
 XYZ=   16.1612   24.7531    6.9378 Q=   -0.8340 A=    0.0000 R=    0.0000 C=    0.0000
 XYZ=   15.5359   25.2572    6.4172 Q=    0.4170 A=    0.0000 R=    0.0000 C=    0.0000
 XYZ=   15.9669   23.8396    6.7278 Q=    0.4170 A=    0.0000 R=    0.0000 C=    0.0000
 XYZ=   25.0260   23.8377   12.0626 Q=   -0.8340 A=    0.0000 R=    0.0000 C=    0.0000
 XYZ=   24.7816   23.8968   11.1390 Q=    0.4170 A=    0.0000 R=    0.0000 C=    0.0000
 XYZ=   25.4742   24.6634   12.2455 Q=    0.4170 A=    0.0000 R=    0.0000 C=    0.0000
 XYZ=    6.1964   15.9342    5.7955 Q=   -0.8340 A=    0.0000 R=    0.0000 C=    0.0000
 XYZ=    7.1271   15.8232    5.9894 Q=    0.4170 A=    0.0000 R=    0.0000 C=    0.0000
 XYZ=    6.0454   16.8761    5.8745 Q=    0.4170 A=    0.0000 R=    0.0000 C=    0.0000
 XYZ=   24.0945   26.9566   10.8009 Q=   -0.8340 A=    0.0000 R=    0.0000 C=    0.0000
 XYZ=   25.0321   26.8626   10.9690 Q=    0.4170 A=    0.0000 R=    0.0000 C=    0.0000
 XYZ=   23.6977   26.9986   11.6710 Q=    0.4170 A=    0.0000 R=    0.0000 C=    0.0000
 XYZ=   23.7749   14.2806   20.3915 Q=   -0.8340 A=    0.0000 R=    0.0000 C=    0.0000
 XYZ=   24.1234   14.5168   21.2511 Q=    0.4170 A=    0.0000 R=    0.0000 C=    0.0000
 XYZ=   24.0304   13.3659   20.2721 Q=    0.4170 A=    0.0000 R=    0.0000 C=    0.0000
 XYZ=   23.7497   25.9678   24.3170 Q=   -0.8340 A=    0.0000 R=    0.0000 C=    0.0000
 XYZ=   23.2723   25.2633   24.7551 Q=    0.4170 A=    0.0000 R=    0.0000 C=    0.0000
 XYZ=   24.3929   26.2598   24.9629 Q=    0.4170 A=    0.0000 R=    0.0000 C=    0.0000
 XYZ=    6.5767   12.1696   19.9490 Q=   -0.8340 A=    0.0000 R=    0.0000 C=    0.0000
 XYZ=    7.2173   12.4096   20.6186 Q=    0.4170 A=    0.0000 R=    0.0000 C=    0.0000
 XYZ=    6.5069   11.2172   20.0141 Q=    0.4170 A=    0.0000 R=    0.0000 C=    0.0000
 XYZ=   21.1336    3.5642   20.3460 Q=   -0.8340 A=    0.0000 R=    0.0000 C=    0.0000
 XYZ=   21.3264    2.6287   20.4084 Q=    0.4170 A=    0.0000 R=    0.0000 C=    0.0000
 XYZ=   20.1854    3.6061   20.2223 Q=    0.4170 A=    0.0000 R=    0.0000 C=    0.0000
 XYZ=   16.8010   19.6479   25.1468 Q=   -0.8340 A=    0.0000 R=    0.0000 C=    0.0000
 XYZ=   17.1826   20.5151   25.2827 Q=    0.4170 A=    0.0000 R=    0.0000 C=    0.0000
 XYZ=   17.1285   19.3731   24.2903 Q=    0.4170 A=    0.0000 R=    0.0000 C=    0.0000
 XYZ=    1.1775   16.5972   17.3490 Q=   -0.8340 A=    0.0000 R=    0.0000 C=    0.0000
 XYZ=    2.1194   16.4624   17.4538 Q=    0.4170 A=    0.0000 R=    0.0000 C=    0.0000
 XYZ=    0.7923   15.7361   17.5112 Q=    0.4170 A=    0.0000 R=    0.0000 C=    0.0000
 XYZ=   12.4541   13.0576   29.4423 Q=   -0.8340 A=    0.0000 R=    0.0000 C=    0.0000
 XYZ=   12.6639   12.7498   28.5605 Q=    0.4170 A=    0.0000 R=    0.0000 C=    0.0000
 XYZ=   11.8621   12.3927   29.7940 Q=    0.4170 A=    0.0000 R=    0.0000 C=    0.0000
 XYZ=   20.5953   19.6756    6.2333 Q=   -0.8340 A=    0.0000 R=    0.0000 C=    0.0000
 XYZ=   20.8827   20.5883    6.2577 Q=    0.4170 A=    0.0000 R=    0.0000 C=    0.0000
 XYZ=   19.9363   19.6130    6.9247 Q=    0.4170 A=    0.0000 R=    0.0000 C=    0.0000
 XYZ=   17.3221   26.1834   19.5433 Q=   -0.8340 A=    0.0000 R=    0.0000 C=    0.0000
 XYZ=   17.1183   25.3415   19.9505 Q=    0.4170 A=    0.0000 R=    0.0000 C=    0.0000
 XYZ=   18.2631   26.1456   19.3721 Q=    0.4170 A=    0.0000 R=    0.0000 C=    0.0000
 XYZ=    6.9084   20.1722   25.1703 Q=   -0.8340 A=    0.0000 R=    0.0000 C=    0.0000
 XYZ=    6.7613   19.9925   24.2417 Q=    0.4170 A=    0.0000 R=    0.0000 C=    0.0000
 XYZ=    6.2374   19.6612   25.6229 Q=    0.4170 A=    0.0000 R=    0.0000 C=    0.0000
 XYZ=   11.7554   10.9432   14.4488 Q=   -0.8340 A=    0.0000 R=    0.0000 C=    0.0000
 XYZ=   11.1481   10.2513   14.7108 Q=    0.4170 A=    0.0000 R=    0.0000 C=    0.0000
 XYZ=   11.7944   11.5276   15.2059 Q=    0.4170 A=    0.0000 R=    0.0000 C=    0.0000
 XYZ=   10.6329   19.4928   15.0085 Q=   -0.8340 A=    0.0000 R=    0.0000 C=    0.0000
 XYZ=   10.1109   18.8826   14.4875 Q=    0.4170 A=    0.0000 R=    0.0000 C=    0.0000
 XYZ=   10.2998   20.3579   14.7699 Q=    0.4170 A=    0.0000 R=    0.0000 C=    0.0000
 XYZ=   21.6472   17.8241   29.9349 Q=   -0.8340 A=    0.0000 R=    0.0000 C=    0.0000
 XYZ=   21.0092   17.1857   29.6163 Q=    0.4170 A=    0.0000 R=    0.0000 C=    0.0000
 XYZ=   22.0835   18.1423   29.1445 Q=    0.4170 A=    0.0000 R=    0.0000 C=    0.0000
 XYZ=   13.3296   22.1229   29.5068 Q=   -0.8340 A=    0.0000 R=    0.0000 C=    0.0000
 XYZ=   13.4032   21.4431   28.8370 Q=    0.4170 A=    0.0000 R=    0.0000 C=    0.0000
 XYZ=   12.9236   21.6817   30.2530 Q=    0.4170 A=    0.0000 R=    0.0000 C=    0.0000
 XYZ=   12.4089   31.0947   18.8661 Q=   -0.8340 A=    0.0000 R=    0.0000 C=    0.0000
 XYZ=   11.9349   30.3752   18.4491 Q=    0.4170 A=    0.0000 R=    0.0000 C=    0.0000
 XYZ=   12.8904   31.5111   18.1512 Q=    0.4170 A=    0.0000 R=    0.0000 C=    0.0000
 XYZ=   13.6356   16.1358   23.3892 Q=   -0.8340 A=    0.0000 R=    0.0000 C=    0.0000
 XYZ=   13.3347   16.8912   23.8943 Q=    0.4170 A=    0.0000 R=    0.0000 C=    0.0000
 XYZ=   13.8991   15.4951   24.0497 Q=    0.4170 A=    0.0000 R=    0.0000 C=    0.0000
 XYZ=   13.7966   20.9220   20.9400 Q=   -0.8340 A=    0.0000 R=    0.0000 C=    0.0000
 XYZ=   14.3535   20.1499   21.0404 Q=    0.4170 A=    0.0000 R=    0.0000 C=    0.0000
 XYZ=   13.8966   21.1722   20.0215 Q=    0.4170 A=    0.0000 R=    0.0000 C=    0.0000
 XYZ=   11.7489   13.2403    3.5169 Q=   -0.8340 A=    0.0000 R=    0.0000 C=    0.0000
 XYZ=   11.1903   13.7208    2.9058 Q=    0.4170 A=    0.0000 R=    0.0000 C=    0.0000
 XYZ=   11.5007   13.5714    4.3800 Q=    0.4170 A=    0.0000 R=    0.0000 C=    0.0000
 XYZ=    9.5479    9.4930   15.0980 Q=   -0.8340 A=    0.0000 R=    0.0000 C=    0.0000
 XYZ=    9.8863    9.2394   15.9567 Q=    0.4170 A=    0.0000 R=    0.0000 C=    0.0000
 XYZ=    9.8747    8.8186   14.5025 Q=    0.4170 A=    0.0000 R=    0.0000 C=    0.0000
 XYZ=   19.4038    8.6280   15.1417 Q=   -0.8340 A=    0.0000 R=    0.0000 C=    0.0000
 XYZ=   20.2213    8.9197   14.7381 Q=    0.4170 A=    0.0000 R=    0.0000 C=    0.0000
 XYZ=   19.4488    7.6724   15.1115 Q=    0.4170 A=    0.0000 R=    0.0000 C=    0.0000
 XYZ=    8.7682   20.0772   17.3379 Q=   -0.8340 A=    0.0000 R=    0.0000 C=    0.0000
 XYZ=    9.4077   19.4727   17.7144 Q=    0.4170 A=    0.0000 R=    0.0000 C=    0.0000
 XYZ=    8.6097   19.7404   16.4561 Q=    0.4170 A=    0.0000 R=    0.0000 C=    0.0000
 XYZ=   12.9713   11.4718   24.1326 Q=   -0.8340 A=    0.0000 R=    0.0000 C=    0.0000
 XYZ=   13.1587   10.5414   24.0083 Q=    0.4170 A=    0.0000 R=    0.0000 C=    0.0000
 XYZ=   13.7670   11.9177   23.8424 Q=    0.4170 A=    0.0000 R=    0.0000 C=    0.0000
 XYZ=   22.2779   11.7776   11.0451 Q=   -0.8340 A=    0.0000 R=    0.0000 C=    0.0000
 XYZ=   21.6361   12.2438   11.5808 Q=    0.4170 A=    0.0000 R=    0.0000 C=    0.0000
 XYZ=   22.9062   11.4254   11.6755 Q=    0.4170 A=    0.0000 R=    0.0000 C=    0.0000
 XYZ=   25.0032   19.8131   17.7639 Q=   -0.8340 A=    0.0000 R=    0.0000 C=    0.0000
 XYZ=   24.7445   20.4595   18.4208 Q=    0.4170 A=    0.0000 R=    0.0000 C=    0.0000
 XYZ=   25.3086   19.0624   18.2731 Q=    0.4170 A=    0.0000 R=    0.0000 C=    0.0000
 XYZ=    8.2790    9.1042   19.6712 Q=   -0.8340 A=    0.0000 R=    0.0000 C=    0.0000
 XYZ=    8.1328    9.0348   18.7278 Q=    0.4170 A=    0.0000 R=    0.0000 C=    0.0000
 XYZ=    7.5768    8.5840   20.0618 Q=    0.4170 A=    0.0000 R=    0.0000 C=    0.0000
 XYZ=    9.0640   15.5413    6.5360 Q=   -0.8340 A=    0.0000 R=    0.0000 C=    0.0000
 XYZ=    9.7687   15.5686    5.8887 Q=    0.4170 A=    0.0000 R=    0.0000 C=    0.0000
 XYZ=    9.0150   14.6221    6.7988 Q=    0.4170 A=    0.0000 R=    0.0000 C=    0.0000
 XYZ=   15.6559   24.7981   15.2907 Q=   -0.8340 A=    0.0000 R=    0.0000 C=    0.0000
 XYZ=   15.6003   24.3808   14.4310 Q=    0.4170 A=    0.0000 R=    0.0000 C=    0.0000
 XYZ=   16.5655   24.6714   15.5606 Q=    0.4170 A=    0.0000 R=    0.0000 C=    0.0000
 XYZ=    4.2837   13.5022   24.3587 Q=   -0.8340 A=    0.0000 R=    0.0000 C=    0.0000
 XYZ=    4.2320   12.5470   24.3936 Q=    0.4170 A=    0.0000 R=    0.0000 C=    0.0000
 XYZ=    4.4416   13.7672   25.2648 Q=    0.4170 A=    0.0000 R=    0.0000 C=    0.0000
 XYZ=   12.8792   22.9704   13.9677 Q=   -0.8340 A=    0.0000 R=    0.0000 C=    0.0000
 XYZ=   13.3871   23.5450   13.3950 Q=    0.4170 A=    0.0000 R=    0.0000 C=    0.0000
 XYZ=   13.2068   22.0913   13.7773 Q=    0.4170 A=    0.0000 R=    0.0000 C=    0.0000
 XYZ=   14.4398   20.8679   26.9413 Q=   -0.8340 A=    0.0000 R=    0.0000 C=    0.0000
 XYZ=   13.5336   20.5799   26.8317 Q=    0.4170 A=    0.0000 R=    0.0000 C=    0.0000
 XYZ=   14.9336   20.3557   26.3010 Q=    0.4170 A=    0.0000 R=    0.0000 C=    0.0000
 XYZ=   15.3977   10.6378   10.1293 Q=   -0.8340 A=    0.0000 R=    0.0000 C=    0.0000
 XYZ=   14.6612   10.4026   10.6937 Q=    0.4170 A=    0.0000 R=    0.0000 C=    0.0000
 XYZ=   15.5313    9.8682    9.5760 Q=    0.4170 A=    0.0000 R=    0.0000 C=    0.0000
 XYZ=    1.8937   13.6785   17.2670 Q=   -0.8340 A=    0.0000 R=    0.0000 C=    0.0000
 XYZ=    2.2695   12.7981   17.2695 Q=    0.4170 A=    0.0000 R=    0.0000 C=    0.0000
 XYZ=    1.0042   13.5606   17.6005 Q=    0.4170 A=    0.0000 R=    0.0000 C=    0.0000
 XYZ=   19.9561   24.0435   23.8255 Q=   -0.8340 A=    0.0000 R=    0.0000 C=    0.0000
 XYZ=   20.0593   24.9026   24.2347 Q=    0.4170 A=    0.0000 R=    0.0000 C=    0.0000
 XYZ=   20.6600   23.5134   24.1993 Q=    0.4170 A=    0.0000 R=    0.0000 C=    0.0000
 XYZ=   11.3422    8.8227    9.3660 Q=   -0.8340 A=    0.0000 R=    0.0000 C=    0.0000
 XYZ=   11.3172    8.3521   10.1992 Q=    0.4170 A=    0.0000 R=    0.0000 C=    0.0000
 XYZ=   12.0256    8.3814    8.8616 Q=    0.4170 A=    0.0000 R=    0.0000 C=    0.0000
 XYZ=   12.7657   18.7710   11.7788 Q=   -0.8340 A=    0.0000 R=    0.0000 C=    0.0000
 XYZ=   12.6735   19.1370   12.6585 Q=    0.4170 A=    0.0000 R=    0.0000 C=    0.0000
 XYZ=   13.5051   18.1669   11.8465 Q=    0.4170 A=    0.0000 R=    0.0000 C=    0.0000
 XYZ=    9.4806   25.8849   16.2045 Q=   -0.8340 A=    0.0000 R=    0.0000 C=    0.0000
 XYZ=    9.9990   25.9467   17.0068 Q=    0.4170 A=    0.0000 R=    0.0000 C=    0.0000
 XYZ=    9.8034   25.0952   15.7705 Q=    0.4170 A=    0.0000 R=    0.0000 C=    0.0000
 XYZ=   17.4372   18.2205    2.3672 Q=   -0.8340 A=    0.0000 R=    0.0000 C=    0.0000
 XYZ=   17.6789   17.5866    1.6919 Q=    0.4170 A=    0.0000 R=    0.0000 C=    0.0000
 XYZ=   17.8282   19.0437    2.0746 Q=    0.4170 A=    0.0000 R=    0.0000 C=    0.0000
 XYZ=    4.4678   22.6280   12.4346 Q=   -0.8340 A=    0.0000 R=    0.0000 C=    0.0000
 XYZ=    4.9422   22.5489   11.6070 Q=    0.4170 A=    0.0000 R=    0.0000 C=    0.0000
 XYZ=    3.7088   23.1722   12.2250 Q=    0.4170 A=    0.0000 R=    0.0000 C=    0.0000
 XYZ=   18.9451    9.8149   12.0649 Q=   -0.8340 A=    0.0000 R=    0.0000 C=    0.0000
 XYZ=   18.5064    9.0616   11.6696 Q=    0.4170 A=    0.0000 R=    0.0000 C=    0.0000
 XYZ=   19.7707    9.4639   12.3987 Q=    0.4170 A=    0.0000 R=    0.0000 C=    0.0000
 XYZ=   28.5026   23.7920   17.9772 Q=   -0.8340 A=    0.0000 R=    0.0000 C=    0.0000
 XYZ=   29.1526   24.3379   17.5349 Q=    0.4170 A=    0.0000 R=    0.0000 C=    0.0000
 XYZ=   28.4378   23.0073   17.4328 Q=    0.4170 A=    0.0000 R=    0.0000 C=    0.0000
 XYZ=   19.9082   20.4312   25.6389 Q=   -0.8340 A=    0.0000 R=    0.0000 C=    0.0000
 XYZ=   20.0480   20.2736   26.5726 Q=    0.4170 A=    0.0000 R=    0.0000 C=    0.0000
 XYZ=   19.0087   20.7538   25.5819 Q=    0.4170 A=    0.0000 R=    0.0000 C=    0.0000
 XYZ=   24.0263   21.0816   26.0914 Q=   -0.8340 A=    0.0000 R=    0.0000 C=    0.0000
 XYZ=   23.1413   21.2856   25.7892 Q=    0.4170 A=    0.0000 R=    0.0000 C=    0.0000
 XYZ=   24.6012   21.4945   25.4470 Q=    0.4170 A=    0.0000 R=    0.0000 C=    0.0000
 XYZ=   16.0962   17.3571   22.5472 Q=   -0.8340 A=    0.0000 R=    0.0000 C=    0.0000
 XYZ=   16.7079   16.7872   23.0131 Q=    0.4170 A=    0.0000 R=    0.0000 C=    0.0000
 XYZ=   15.2702   17.2614   23.0214 Q=    0.4170 A=    0.0000 R=    0.0000 C=    0.0000
 XYZ=   27.6757    7.1817   15.9528 Q=   -0.8340 A=    0.0000 R=    0.0000 C=    0.0000
 XYZ=   28.0713    6.8091   16.7408 Q=    0.4170 A=    0.0000 R=    0.0000 C=    0.0000
 XYZ=   28.0886    8.0402   15.8599 Q=    0.4170 A=    0.0000 R=    0.0000 C=    0.0000
 XYZ=   27.8109   19.0377   15.1303 Q=   -0.8340 A=    0.0000 R=    0.0000 C=    0.0000
 XYZ=   28.1283   19.5699   14.4007 Q=    0.4170 A=    0.0000 R=    0.0000 C=    0.0000
 XYZ=   27.3286   18.3232   14.7142 Q=    0.4170 A=    0.0000 R=    0.0000 C=    0.0000
 XYZ=   14.3996    5.7249   20.6660 Q=   -0.8340 A=    0.0000 R=    0.0000 C=    0.0000
 XYZ=   14.1147    5.9688   19.7853 Q=    0.4170 A=    0.0000 R=    0.0000 C=    0.0000
 XYZ=   14.1328    6.4607   21.2170 Q=    0.4170 A=    0.0000 R=    0.0000 C=    0.0000
 XYZ=   14.4704   24.8716   20.4330 Q=   -0.8340 A=    0.0000 R=    0.0000 C=    0.0000
 XYZ=   14.5709   24.8346   19.4819 Q=    0.4170 A=    0.0000 R=    0.0000 C=    0.0000
 XYZ=   14.7712   24.0161   20.7396 Q=    0.4170 A=    0.0000 R=    0.0000 C=    0.0000
 XYZ=   13.1780   22.5707   23.1331 Q=   -0.8340 A=    0.0000 R=    0.0000 C=    0.0000
 XYZ=   12.7686   21.8028   23.5317 Q=    0.4170 A=    0.0000 R=    0.0000 C=    0.0000
 XYZ=   13.5873   22.2372   22.3347 Q=    0.4170 A=    0.0000 R=    0.0000 C=    0.0000
 XYZ=   13.9055   10.2238   30.0104 Q=   -0.8340 A=    0.0000 R=    0.0000 C=    0.0000
 XYZ=   14.4328   10.9549   29.6882 Q=    0.4170 A=    0.0000 R=    0.0000 C=    0.0000
 XYZ=   14.4906    9.4676   29.9650 Q=    0.4170 A=    0.0000 R=    0.0000 C=    0.0000
 XYZ=   16.2157   13.3339   27.4811 Q=   -0.8340 A=    0.0000 R=    0.0000 C=    0.0000
 XYZ=   16.7011   14.1569   27.4231 Q=    0.4170 A=    0.0000 R=    0.0000 C=    0.0000
 XYZ=   15.4177   13.4899   26.9759 Q=    0.4170 A=    0.0000 R=    0.0000 C=    0.0000
 XYZ=   21.1511    8.5873   12.9062 Q=   -0.8340 A=    0.0000 R=    0.0000 C=    0.0000
 XYZ=   21.4055    7.8634   12.3339 Q=    0.4170 A=    0.0000 R=    0.0000 C=    0.0000
 XYZ=   21.7100    9.3155   12.6349 Q=    0.4170 A=    0.0000 R=    0.0000 C=    0.0000
 XYZ=   11.8313   20.7160   26.5657 Q=   -0.8340 A=    0.0000 R=    0.0000 C=    0.0000
 XYZ=   11.4182   20.6314   25.7063 Q=    0.4170 A=    0.0000 R=    0.0000 C=    0.0000
 XYZ=   11.4717   21.5266   26.9260 Q=    0.4170 A=    0.0000 R=    0.0000 C=    0.0000
 XYZ=   22.9004   18.6812   20.4551 Q=   -0.8340 A=    0.0000 R=    0.0000 C=    0.0000
 XYZ=   23.0762   19.3365   21.1303 Q=    0.4170 A=    0.0000 R=    0.0000 C=    0.0000
 XYZ=   23.7290   18.2127   20.3538 Q=    0.4170 A=    0.0000 R=    0.0000 C=    0.0000
 XYZ=    5.9105   19.2697   17.8090 Q=   -0.8340 A=    0.0000 R=    0.0000 C=    0.0000
 XYZ=    5.7954   18.9662   18.7095 Q=    0.4170 A=    0.0000 R=    0.0000 C=    0.0000
 XYZ=    6.5946   19.9367   17.8661 Q=    0.4170 A=    0.0000 R=    0.0000 C=    0.0000
 XYZ=   12.2120    6.8358   11.5635 Q=   -0.8340 A=    0.0000 R=    0.0000 C=    0.0000
 XYZ=   12.5613    7.6406   11.9462 Q=    0.4170 A=    0.0000 R=    0.0000 C=    0.0000
 XYZ=   12.8824    6.1757   11.7396 Q=    0.4170 A=    0.0000 R=    0.0000 C=    0.0000
 XYZ=    4.8904    7.9741    9.9169 Q=   -0.8340 A=    0.0000 R=    0.0000 C=    0.0000
 XYZ=    4.0464    8.0270   10.3653 Q=    0.4170 A=    0.0000 R=    0.0000 C=    0.0000
 XYZ=    5.4375    8.6242   10.3577 Q=    0.4170 A=    0.0000 R=    0.0000 C=    0.0000
 XYZ=   26.4073   27.7207   17.3252 Q=   -0.8340 A=    0.0000 R=    0.0000 C=    0.0000
 XYZ=   26.3031   27.6502   18.2741 Q=    0.4170 A=    0.0000 R=    0.0000 C=    0.0000
 XYZ=   26.4088   28.6623   17.1532 Q=    0.4170 A=    0.0000 R=    0.0000 C=    0.0000
 XYZ=   20.6580   12.4993   17.4492 Q=   -0.8340 A=    0.0000 R=    0.0000 C=    0.0000
 XYZ=   21.4001   11.9866   17.7695 Q=    0.4170 A=    0.0000 R=    0.0000 C=    0.0000
 XYZ=   20.4741   13.1211   18.1532 Q=    0.4170 A=    0.0000 R=    0.0000 C=    0.0000
 XYZ=   26.3018   16.3211   22.0420 Q=   -0.8340 A=    0.0000 R=    0.0000 C=    0.0000
 XYZ=   27.1947   16.2845   22.3848 Q=    0.4170 A=    0.0000 R=    0.0000 C=    0.0000
 XYZ=   25.7895   16.7148   22.7483 Q=    0.4170 A=    0.0000 R=    0.0000 C=    0.0000
 XYZ=   28.8803   13.0995   16.5180 Q=   -0.8340 A=    0.0000 R=    0.0000 C=    0.0000
 XYZ=   28.9081   13.9486   16.9589 Q=    0.4170 A=    0.0000 R=    0.0000 C=    0.0000
 XYZ=   29.5167   13.1772   15.8072 Q=    0.4170 A=    0.0000 R=    0.0000 C=    0.0000
 XYZ=   24.0885    6.6430   18.5296 Q=   -0.8340 A=    0.0000 R=    0.0000 C=    0.0000
 XYZ=   24.4084    7.0515   17.7252 Q=    0.4170 A=    0.0000 R=    0.0000 C=    0.0000
 XYZ=   23.3834    6.0637   18.2405 Q=    0.4170 A=    0.0000 R=    0.0000 C=    0.0000
 XYZ=    9.4767   21.8933   11.3713 Q=   -0.8340 A=    0.0000 R=    0.0000 C=    0.0000
 XYZ=   10.3200   21.4851   11.1754 Q=    0.4170 A=    0.0000 R=    0.0000 C=    0.0000
 XYZ=    9.4852   22.7119   10.8752 Q=    0.4170 A=    0.0000 R=    0.0000 C=    0.0000
 XYZ=   10.7588   13.9631   18.5910 Q=   -0.8340 A=    0.0000 R=    0.0000 C=    0.0000
 XYZ=   10.5477   14.3907   19.4210 Q=    0.4170 A=    0.0000 R=    0.0000 C=    0.0000
 XYZ=   10.2348   14.4304   17.9403 Q=    0.4170 A=    0.0000 R=    0.0000 C=    0.0000
 XYZ=   12.4714   23.6700   27.1100 Q=   -0.8340 A=    0.0000 R=    0.0000 C=    0.0000
 XYZ=   12.9821   24.4736   27.0124 Q=    0.4170 A=    0.0000 R=    0.0000 C=    0.0000
 XYZ=   12.8378   23.2454   27.8857 Q=    0.4170 A=    0.0000 R=    0.0000 C=    0.0000
 XYZ=   16.4682    6.9279    4.0486 Q=   -0.8340 A=    0.0000 R=    0.0000 C=    0.0000
 XYZ=   16.9191    7.6667    4.4574 Q=    0.4170 A=    0.0000 R=    0.0000 C=    0.0000
 XYZ=   15.5723    6.9796    4.3816 Q=    0.4170 A=    0.0000 R=    0.0000 C=    0.0000
 XYZ=    7.3693    8.2636   11.9626 Q=   -0.8340 A=    0.0000 R=    0.0000 C=    0.0000
 XYZ=    7.6650    7.4317   11.5931 Q=    0.4170 A=    0.0000 R=    0.0000 C=    0.0000
 XYZ=    7.0603    8.0400   12.8405 Q=    0.4170 A=    0.0000 R=    0.0000 C=    0.0000
 XYZ=    6.2776   21.2295   14.2758 Q=   -0.8340 A=    0.0000 R=    0.0000 C=    0.0000
 XYZ=    5.6638   21.8778   13.9305 Q=    0.4170 A=    0.0000 R=    0.0000 C=    0.0000
 XYZ=    5.7955   20.7924   14.9777 Q=    0.4170 A=    0.0000 R=    0.0000 C=    0.0000
 XYZ=   12.6206   26.8418   20.8099 Q=   -0.8340 A=    0.0000 R=    0.0000 C=    0.0000
 XYZ=   13.4068   26.3089   20.6909 Q=    0.4170 A=    0.0000 R=    0.0000 C=    0.0000
 XYZ=   12.1625   26.4329   21.5443 Q=    0.4170 A=    0.0000 R=    0.0000 C=    0.0000
 XYZ=   17.0336   24.8287    4.2062 Q=   -0.8340 A=    0.0000 R=    0.0000 C=    0.0000
 XYZ=   17.2831   24.2488    4.9257 Q=    0.4170 A=    0.0000 R=    0.0000 C=    0.0000
 XYZ=   16.3982   25.4312    4.5929 Q=    0.4170 A=    0.0000 R=    0.0000 C=    0.0000
 XYZ=   19.6541   21.2033   20.5988 Q=   -0.8340 A=    0.0000 R=    0.0000 C=    0.0000
 XYZ=   20.1522   21.4086   19.8076 Q=    0.4170 A=    0.0000 R=    0.0000 C=    0.0000
 XYZ=   19.6364   22.0240   21.0910 Q=    0.4170 A=    0.0000 R=    0.0000 C=    0.0000
 XYZ=   11.8058   27.3020   26.1778 Q=   -0.8340 A=    0.0000 R=    0.0000 C=    0.0000
 XYZ=   11.3449   26.5339   25.8404 Q=    0.4170 A=    0.0000 R=    0.0000 C=    0.0000
 XYZ=   11.1545   28.0030   26.1524 Q=    0.4170 A=    0.0000 R=    0.0000 C=    0.0000
 XYZ=   16.5841   15.1792   24.9158 Q=   -0.8340 A=    0.0000 R=    0.0000 C=    0.0000
 XYZ=   17.0506   15.5244   25.6770 Q=    0.4170 A=    0.0000 R=    0.0000 C=    0.0000
 XYZ=   15.6890   15.0406   25.2255 Q=    0.4170 A=    0.0000 R=    0.0000 C=    0.0000
 XYZ=   24.3518   16.7306   24.0663 Q=   -0.8340 A=    0.0000 R=    0.0000 C=    0.0000
 XYZ=   24.2120   15.8859   24.4942 Q=    0.4170 A=    0.0000 R=    0.0000 C=    0.0000
 XYZ=   24.7292   17.2857   24.7486 Q=    0.4170 A=    0.0000 R=    0.0000 C=    0.0000
 XYZ=    4.6688   16.8421   24.3084 Q=   -0.8340 A=    0.0000 R=    0.0000 C=    0.0000
 XYZ=    4.3422   17.0095   23.4243 Q=    0.4170 A=    0.0000 R=    0.0000 C=    0.0000
 XYZ=    4.0662   16.1908   24.6674 Q=    0.4170 A=    0.0000 R=    0.0000 C=    0.0000
 XYZ=   21.9312   21.8871    5.8842 Q=   -0.8340 A=    0.0000 R=    0.0000 C=    0.0000
 XYZ=   22.7797   21.4440    5.8768 Q=    0.4170 A=    0.0000 R=    0.0000 C=    0.0000
 XYZ=   21.8326   22.2016    6.7829 Q=    0.4170 A=    0.0000 R=    0.0000 C=    0.0000
 XYZ=   31.0585   13.4210   14.5687 Q=   -0.8340 A=    0.0000 R=    0.0000 C=    0.0000
 XYZ=   31.2870   12.6350   14.0726 Q=    0.4170 A=    0.0000 R=    0.0000 C=    0.0000
 XYZ=   31.6182   14.1064   14.2039 Q=    0.4170 A=    0.0000 R=    0.0000 C=    0.0000
 XYZ=   29.1283   16.2950   23.0359 Q=   -0.8340 A=    0.0000 R=    0.0000 C=    0.0000
 XYZ=   28.9662   16.5516   23.9437 Q=    0.4170 A=    0.0000 R=    0.0000 C=    0.0000
 XYZ=   29.3957   17.1050   22.6016 Q=    0.4170 A=    0.0000 R=    0.0000 C=    0.0000
 XYZ=   19.7346   20.8227   12.8729 Q=   -0.8340 A=    0.0000 R=    0.0000 C=    0.0000
 XYZ=   19.2971   21.6735   12.9045 Q=    0.4170 A=    0.0000 R=    0.0000 C=    0.0000
 XYZ=   20.6405   21.0094   13.1192 Q=    0.4170 A=    0.0000 R=    0.0000 C=    0.0000
 XYZ=   29.9659   18.2174   21.5588 Q=   -0.8340 A=    0.0000 R=    0.0000 C=    0.0000
 XYZ=   30.8340   18.5684   21.7574 Q=    0.4170 A=    0.0000 R=    0.0000 C=    0.0000
 XYZ=   29.4895   18.9558   21.1795 Q=    0.4170 A=    0.0000 R=    0.0000 C=    0.0000
 XYZ=   28.9764   20.8261   20.1860 Q=   -0.8340 A=    0.0000 R=    0.0000 C=    0.0000
 XYZ=   28.5561   21.0699   19.3613 Q=    0.4170 A=    0.0000 R=    0.0000 C=    0.0000
 XYZ=   28.2969   20.9528   20.8482 Q=    0.4170 A=    0.0000 R=    0.0000 C=    0.0000
 XYZ=   10.4882   12.2319   22.8303 Q=   -0.8340 A=    0.0000 R=    0.0000 C=    0.0000
 XYZ=   10.2822   11.3651   22.4807 Q=    0.4170 A=    0.0000 R=    0.0000 C=    0.0000
 XYZ=   11.4172   12.1852   23.0559 Q=    0.4170 A=    0.0000 R=    0.0000 C=    0.0000
 XYZ=   21.2251   26.7530   12.5916 Q=   -0.8340 A=    0.0000 R=    0.0000 C=    0.0000
 XYZ=   21.7723   27.5247   12.7378 Q=    0.4170 A=    0.0000 R=    0.0000 C=    0.0000
 XYZ=   21.4605   26.1542   13.3003 Q=    0.4170 A=    0.0000 R=    0.0000 C=    0.0000
 XYZ=   17.1503   26.5414   26.1618 Q=   -0.8340 A=    0.0000 R=    0.0000 C=    0.0000
 XYZ=   17.5667   26.8346   26.9723 Q=    0.4170 A=    0.0000 R=    0.0000 C=    0.0000
 XYZ=   17.2821   25.5934   26.1535 Q=    0.4170 A=    0.0000 R=    0.0000 C=    0.0000
 XYZ=   22.3819   12.2214   29.5602 Q=   -0.8340 A=    0.0000 R=    0.0000 C=    0.0000
 XYZ=   21.7110   12.8824   29.3895 Q=    0.4170 A=    0.0000 R=    0.0000 C=    0.0000
 XYZ=   22.5800   12.3156   30.4919 Q=    0.4170 A=    0.0000 R=    0.0000 C=    0.0000
 XYZ=   15.0980   10.7410    4.4270 Q=   -0.8340 A=    0.0000 R=    0.0000 C=    0.0000
 XYZ=   15.9526   10.9150    4.8214 Q=    0.4170 A=    0.0000 R=    0.0000 C=    0.0000
 XYZ=   14.6282   10.2314    5.0872 Q=    0.4170 A=    0.0000 R=    0.0000 C=    0.0000
 XYZ=   18.4482    4.1450   25.7257 Q=   -0.8340 A=    0.0000 R=    0.0000 C=    0.0000
 XYZ=   18.4319    4.4037   24.8043 Q=    0.4170 A=    0.0000 R=    0.0000 C=    0.0000
 XYZ=   18.2513    3.2084   25.7156 Q=    0.4170 A=    0.0000 R=    0.0000 C=    0.0000
 XYZ=   24.5161   11.5951   20.1970 Q=   -0.8340 A=    0.0000 R=    0.0000 C=    0.0000
 XYZ=   24.9761   11.3967   21.0127 Q=    0.4170 A=    0.0000 R=    0.0000 C=    0.0000
 XYZ=   25.2094   11.8393   19.5839 Q=    0.4170 A=    0.0000 R=    0.0000 C=    0.0000
 XYZ=   10.7827   10.3182   27.2985 Q=   -0.8340 A=    0.0000 R=    0.0000 C=    0.0000
 XYZ=   10.6934   11.1160   26.7772 Q=    0.4170 A=    0.0000 R=    0.0000 C=    0.0000
 XYZ=   11.6910   10.0463   27.1675 Q=    0.4170 A=    0.0000 R=    0.0000 C=    0.0000
 XYZ=   21.2915   14.4256   28.1528 Q=   -0.8340 A=    0.0000 R=    0.0000 C=    0.0000
 XYZ=   20.8899   15.0177   28.7888 Q=    0.4170 A=    0.0000 R=    0.0000 C=    0.0000
 XYZ=   21.9944   14.9402   27.7563 Q=    0.4170 A=    0.0000 R=    0.0000 C=    0.0000
 XYZ=   11.8541   14.1300    6.2463 Q=   -0.8340 A=    0.0000 R=    0.0000 C=    0.0000
 XYZ=   12.6000   13.6024    5.9606 Q=    0.4170 A=    0.0000 R=    0.0000 C=    0.0000
 XYZ=   12.0755   14.3948    7.1391 Q=    0.4170 A=    0.0000 R=    0.0000 C=    0.0000
 XYZ=    8.4950    5.8594   10.5041 Q=   -0.8340 A=    0.0000 R=    0.0000 C=    0.0000
 XYZ=    9.2397    5.8041   11.1029 Q=    0.4170 A=    0.0000 R=    0.0000 C=    0.0000
 XYZ=    8.8606    5.6447    9.6459 Q=    0.4170 A=    0.0000 R=    0.0000 C=    0.0000
 XYZ=   14.3301   15.6089   26.4684 Q=   -0.8340 A=    0.0000 R=    0.0000 C=    0.0000
 XYZ=   13.4978   15.1399   26.4088 Q=    0.4170 A=    0.0000 R=    0.0000 C=    0.0000
 XYZ=   14.1664   16.3087   27.1006 Q=    0.4170 A=    0.0000 R=    0.0000 C=    0.0000
 XYZ=   14.0910    7.1740    5.6349 Q=   -0.8340 A=    0.0000 R=    0.0000 C=    0.0000
 XYZ=   13.2572    6.9813    5.2060 Q=    0.4170 A=    0.0000 R=    0.0000 C=    0.0000
 XYZ=   13.9786    8.0542    5.9938 Q=    0.4170 A=    0.0000 R=    0.0000 C=    0.0000
 XYZ=   21.1564   18.2166    3.8261 Q=   -0.8340 A=    0.0000 R=    0.0000 C=    0.0000
 XYZ=   20.7167   18.7829    3.1920 Q=    0.4170 A=    0.0000 R=    0.0000 C=    0.0000
 XYZ=   20.8363   18.5154    4.6773 Q=    0.4170 A=    0.0000 R=    0.0000 C=    0.0000
 XYZ=   20.9195   19.3479   15.2753 Q=   -0.8340 A=    0.0000 R=    0.0000 C=    0.0000
 XYZ=   21.6115   18.7380   15.5306 Q=    0.4170 A=    0.0000 R=    0.0000 C=    0.0000
 XYZ=   21.3805   20.1607   15.0675 Q=    0.4170 A=    0.0000 R=    0.0000 C=    0.0000
 XYZ=    8.9755   21.5850   14.1548 Q=   -0.8340 A=    0.0000 R=    0.0000 C=    0.0000
 XYZ=    9.1561   21.6094   13.2151 Q=    0.4170 A=    0.0000 R=    0.0000 C=    0.0000
 XYZ=    8.0204   21.5963   14.2160 Q=    0.4170 A=    0.0000 R=    0.0000 C=    0.0000
 XYZ=    8.3334   28.2167   15.6577 Q=   -0.8340 A=    0.0000 R=    0.0000 C=    0.0000
 XYZ=    8.5543   27.2935   15.7807 Q=    0.4170 A=    0.0000 R=    0.0000 C=    0.0000
 XYZ=    8.9592   28.5281   15.0037 Q=    0.4170 A=    0.0000 R=    0.0000 C=    0.0000
 XYZ=    9.4651   10.7594    8.7776 Q=   -0.8340 A=    0.0000 R=    0.0000 C=    0.0000
 XYZ=   10.2115   10.1608    8.8088 Q=    0.4170 A=    0.0000 R=    0.0000 C=    0.0000
 XYZ=    9.1646   10.8156    9.6846 Q=    0.4170 A=    0.0000 R=    0.0000 C=    0.0000
 XYZ=   13.8147   10.6642   17.9196 Q=   -0.8340 A=    0.0000 R=    0.0000 C=    0.0000
 XYZ=   14.4173   11.3324   18.2459 Q=    0.4170 A=    0.0000 R=    0.0000 C=    0.0000
 XYZ=   13.2015   11.1449   17.3636 Q=    0.4170 A=    0.0000 R=    0.0000 C=    0.0000
 XYZ=   13.9001   22.3722   10.5409 Q=   -0.8340 A=    0.0000 R=    0.0000 C=    0.0000
 XYZ=   14.5456   21.6654   10.5386 Q=    0.4170 A=    0.0000 R=    0.0000 C=    0.0000
 XYZ=   13.0785   21.9478   10.2939 Q=    0.4170 A=    0.0000 R=    0.0000 C=    0.0000
 XYZ=   22.8123    8.9564    8.4911 Q=   -0.8340 A=    0.0000 R=    0.0000 C=    0.0000
 XYZ=   22.1041    9.5996    8.5225 Q=    0.4170 A=    0.0000 R=    0.0000 C=    0.0000
 XYZ=   23.4851    9.3665    7.9477 Q=    0.4170 A=    0.0000 R=    0.0000 C=    0.0000
 XYZ=   12.4149   26.3121   17.8944 Q=   -0.8340 A=    0.0000 R=    0.0000 C=    0.0000
 XYZ=   11.9949   26.2104   18.7485 Q=    0.4170 A=    0.0000 R=    0.0000 C=    0.0000
 XYZ=   12.8462   25.4721   17.7375 Q=    0.4170 A=    0.0000 R=    0.0000 C=    0.0000
 XYZ=    9.0073   18.2142   25.5428 Q=   -0.8340 A=    0.0000 R=    0.0000 C=    0.0000
 XYZ=    9.1805   17.9805   24.6308 Q=    0.4170 A=    0.0000 R=    0.0000 C=    0.0000
 XYZ=    8.4109   18.9611   25.4900 Q=    0.4170 A=    0.0000 R=    0.0000 C=    0.0000
 XYZ=   27.7040   12.3875   11.3923 Q=   -0.8340 A=    0.0000 R=    0.0000 C=    0.0000
 XYZ=   27.9476   12.8985   12.1641 Q=    0.4170 A=    0.0000 R=    0.0000 C=    0.0000
[...]
 19,0.00005549,0.00005274,0.00001604,-0.00014039,0.00000015,0.00006333,
 0.00006749,-0.00002838,-0.00008818,0.00006945,-0.00000372,-0.00000840,
 0.00055251,0.00005078,0.00008732,-0.00017850,-0.00013103,-0.00026029,-
 0.00014311,0.00003419,-0.00000595,-0.00005433,0.00006675,0.00017758,0.
 00003387,-0.00004006,-0.00001423,0.00013769,-0.00014019,-0.00013884,-0
 .00006659,0.00000541,0.00014302,0.00004987,-0.00002725,-0.00006473,0.0
 0000816,0.00001061,-0.00005359,-0.00024221,-0.00116496,-0.00038722,-0.
 00018933,0.00066868,-0.00019021,0.00061337,0.00141568,0.00104405,-0.00
 010434,-0.00004514,0.00004619,0.00004613,0.00002199,-0.00000995,0.0000
 3737,0.00002498,-0.00005281,0.00004703,0.00001394,0.00028705,-0.000007
 64,0.00001598,-0.00003311,0.00005087,0.00001833,-0.00016519,-0.0001409
 7,0.00009119,-0.00021847,0.00001636,-0.00003537,0.00007176,0.00012687,
 -0.00000815,0.00010143,-0.00016425,-0.00013745,0.00005463,0.00010114,0
 .00008927,-0.00008215,0.00007580,0.00002132,-0.00001189,0.00030814,0.0
 0069697,0.00030407,-0.00051744,-0.00093029,-0.00025412,-0.00006488,-0.
 00018094,0.00001068,0.00005569,0.00003115,0.00092650,-0.00011978,0.000
 15998,-0.00023210,0.00005955,-0.00010920,-0.00026909,-0.00182091,0.002
 93590,-0.00148562,0.00075844,-0.00167633,0.00068243,0.00045382,-0.0004
 2226,-0.00091310,-0.00014437,0.00000836,-0.00007445,0.00004588,0.00001
 139,0.00000976,0.00012957,0.00001344,0.00009533,-0.00008412,0.00003146
 ,0.00020298,0.00000230,-0.00002696,-0.00005517,-0.00000404,-0.00002495
 ,-0.00015138,-0.00005167,0.00005232,0.00014102,0.00002348,-0.00002523,
 -0.00003694,0.00003759,-0.00001476,-0.00008945,0.00018744,0.00049327,0
 .00136753,0.00004756,-0.00024391,-0.00072380,0.00003469,0.00069105,-0.
 00074954,0.00244660,0.00110452,-0.00061154,-0.00032833,-0.00046950,0.0
 0001656,-0.00117312,0.00019259,0.00038008,0.15600090,-0.12830928,0.393
 84160,-0.00398817,0.00276055,-0.00305572,-0.00097228,0.00116225,-0.000
 58400,0.00017178,-0.00019621,0.00073436,-0.00047671,0.00040349,-0.0011
 7529,0.00069188,-0.00107605,0.00141251,0.00000577,-0.00000623,0.000001
 65,0.00000808,0.00001349,0.00004977,0.00020842,-0.00026062,0.00121841,
 0.00244112,0.00012132,0.00284463,0.00153893,-0.00106810,-0.00019652,-0
 .00167658,0.00021951,0.00005210,0.00020803,-0.00012990,-0.00028898,-0.
 00020655,-0.00003792,-0.00003527,0.00005283,0.00005373,-0.00001519,0.0
 0018170,-0.00001861,0.00010471,-0.00019626,0.00011360,0.00023337,0.000
 06090,0.00000076,-0.00005446,0.00005073,-0.00006487,-0.00008174,0.0002
 1295,0.00005352,0.00007129,-0.00010726,0.00000176,-0.00001075,-0.00008
 925,0.00000398,-0.00005631,0.00024670,-0.00003793,-0.00021592,-0.00009
 807,-0.00000062,0.00007244,-0.00005373,0.00005354,0.00008158,-0.000094
 10,-0.00010894,0.00003633,0.00001982,0.00005411,-0.00001090,0.00007850
 ,0.00004640,-0.00003129,0.00014747,-0.00003738,-0.00001432,-0.00009233
 ,0.00006944,0.00002125,-0.00005226,0.00001174,0.00000918,-0.00058235,-
 0.00027715,-0.00057491,-0.00001367,0.00044345,0.00038729,0.00078268,0.
 00016919,0.00073221,0.00010279,0.00010090,0.00005133,-0.00004780,-0.00
 004723,-0.00002704,-0.00006985,-0.00004441,-0.00002134,0.00020370,0.00
 005788,-0.00007247,-0.00005668,-0.00001375,0.00001113,-0.00017065,-0.0
 0008593,0.00003656,-0.00020704,-0.00005175,0.00008628,0.00004831,-0.00
 000524,-0.00002161,0.00019854,0.00004560,-0.00015581,0.00003741,0.0001
 9391,0.00006932,-0.00006558,-0.00015062,-0.00004195,-0.00002336,-0.000
 05003,-0.00002498,-0.00021012,0.00017559,-0.00018200,0.00023484,-0.000
 14177,0.00020236,0.00003474,-0.00007067,0.00007700,-0.00023750,-0.0002
 0130,0.00009005,0.00004233,0.00013910,-0.00000875,0.00006733,0.0000480
 9,-0.00002732,-0.00152439,0.00012340,-0.00068462,0.00198318,-0.0001330
 8,0.00114044,0.00037268,0.00034436,-0.00014755,0.00010611,-0.00000687,
 0.00021223,-0.00002078,-0.00002489,-0.00004439,-0.00014546,-0.00001832
 ,-0.00024493,0.00020213,0.00024865,-0.00001107,-0.00006319,-0.00005610
 ,0.00001871,-0.00008838,-0.00022877,0.00004211,0.00003792,-0.00016128,
 -0.00003504,-0.00003065,0.00004846,0.00001198,0.00003226,0.00008101,-0
 .00000555,-0.00191825,-0.00069086,-0.00029573,0.00016025,0.00149060,0.
 00011971,0.00174223,-0.00087734,0.00012364,0.00031554,-0.00006412,-0.0
 0151439,-0.00020092,-0.00032333,0.00001450,0.00016887,0.00039948,0.000
 30701,-0.17207917,-0.20287965,0.08598758,0.18891845,-0.00277805,0.0040
 3595,0.00011481,0.00026569,-0.00024100,0.00011174,0.00011474,-0.000197
 23,-0.00027819,-0.00053493,0.00059553,0.00014978,0.00076249,-0.0009695
 0,0.00075606,0.00008711,-0.00001731,0.00002130,0.00002148,0.00001050,-
 0.00002149,0.00012555,-0.00020320,0.00005504,0.00285503,-0.00257168,0.
 00108375,0.00024016,-0.00125392,-0.00085423,0.00089559,0.00064321,0.00
 019052,-0.00000570,0.00008241,-0.00008922,-0.00008618,0.00003517,-0.00
 013322,0.00001343,0.00002465,0.00003207,0.00010193,-0.00005431,0.00016
 403,0.00002064,-0.00010130,0.00007213,0.00000460,0.00004860,-0.0000163
 9,-0.00002070,0.00002959,-0.00003861,0.00001160,-0.00005615,-0.0000310
 6,-0.00000710,0.00003000,0.00004109,-0.00000294,0.00001189,0.00000485,
 -0.00028369,-0.00011515,0.00000048,0.00009149,0.00010641,0.00010793,0.
 00008850,0.00000987,-0.00002399,-0.00014905,0.00007218,-0.00007425,0.0
 0003239,-0.00001010,0.00000105,0.00004384,-0.00001083,0.00004804,-0.00
 001113,-0.00004091,-0.00004145,0.00001607,0.00003068,0.00002097,0.0000
 1036,0.00001147,0.00000868,-0.00039191,-0.00031226,0.00082570,0.000416
 85,-0.00002793,-0.00044936,0.00022485,0.00052075,-0.00075155,0.0000754
 8,-0.00006357,0.00001827,-0.00001543,0.00004286,-0.00000781,-0.0000317
 3,0.00002630,-0.00000489,-0.00000191,-0.00014087,-0.00009276,-0.000009
 24,0.00002743,0.00000078,-0.00004652,0.00013123,0.00004324,-0.00001710
 ,-0.00007648,-0.00004058,-0.00000453,0.00002085,0.00000007,0.00002012,
 0.00005575,-0.00000241,0.00016096,-0.00002921,0.00008836,-0.00011516,0
 .00002624,-0.00003593,-0.00007650,0.00003898,-0.00002388,0.00005806,0.
 00016178,-0.00012645,-0.00009174,-0.00012557,0.00007505,-0.00001955,-0
 .00003651,0.00005608,-0.00022953,0.00021372,-0.00026099,0.00008523,-0.
 00006656,0.00003258,0.00010422,-0.00006153,0.00015637,-0.00006845,0.00
 034597,-0.00044010,-0.00019688,-0.00057866,0.00067174,0.00026719,-0.00
 028786,0.00031488,0.00000947,-0.00003162,0.00000273,-0.00000525,0.0000
 1468,-0.00000061,-0.00000602,0.00001892,-0.00000597,0.00019451,-0.0001
 3911,-0.00006865,-0.00005361,0.00003443,0.00003233,-0.00020595,0.00006
 253,0.00005276,-0.00008214,-0.00004198,-0.00003128,0.00002147,0.000017
 01,0.00001132,0.00007048,0.00000373,0.00001365,0.00054446,0.00422459,0
 .00040710,0.00085949,-0.00150842,-0.00011507,-0.00118598,-0.00245077,-
 0.00207168,-0.00133705,-0.00164199,0.00098167,0.00013511,0.00044224,0.
 00013548,0.00080322,-0.00004287,-0.00074551,-0.22820213,-0.30069469,0.
 15972580,0.23034488,0.30927040,-0.00519078,0.00451105,-0.00136407,-0.0
 0030810,0.00029105,-0.00016401,0.00019966,-0.00026086,0.00001578,-0.00
 092576,0.00081639,-0.00048124,0.00096010,-0.00124300,0.00124444,0.0000
 7131,-0.00004802,0.00005696,0.00001080,0.00000640,-0.00000394,0.000283
 66,-0.00027651,0.00062040,0.00522036,-0.00072477,0.00120844,0.00116226
 ,-0.00124728,-0.00102053,0.00019553,-0.00004844,0.00105548,-0.00001719
 ,-0.00008006,-0.00023811,-0.00006325,-0.00008147,-0.00004221,0.0000163
 7,0.00005012,-0.00000231,0.00005831,0.00004676,0.00004591,-0.00001194,
 0.00002435,0.00019022,0.00001356,0.00002447,-0.00005569,-0.00002117,-0
 .00004093,-0.00005438,0.00015689,0.00000692,-0.00002376,-0.00007779,0.
 00002338,0.00006342,-0.00006991,0.00000672,-0.00001370,-0.00044102,-0.
 00001649,-0.00007434,0.00013952,0.00010131,0.00021827,0.00009683,-0.00
 003493,0.00000626,-0.00004598,-0.00004702,-0.00005266,0.00000321,0.000
 02868,0.00000594,0.00001222,0.00004965,0.00003091,0.00008135,-0.000016
 41,-0.00011161,-0.00005634,0.00004289,0.00005325,-0.00001424,-0.000004
 52,0.00004027,-0.00034218,0.00033886,0.00059628,0.00031218,-0.00036446
 ,-0.00007004,0.00038142,-0.00025841,-0.00133852,0.00011193,0.00004767,
 -0.00001555,-0.00004423,-0.00002017,-0.00000387,-0.00004757,-0.0000268
 6,0.00003625,-0.00000608,-0.00000576,-0.00024656,-0.00000292,-0.000010
 76,0.00002403,-0.00007290,-0.00002862,0.00015339,-0.00004367,-0.000101
 64,0.00007992,0.00000604,0.00002217,-0.00003465,0.00005287,0.00006011,
 -0.00009936,0.00016091,0.00014983,-0.00000044,-0.00012455,-0.00011053,
 0.00004776,-0.00007246,-0.00001858,-0.00000406,-0.00009261,0.00000678,
 -0.00007398,0.00013907,-0.00000932,0.00006094,0.00001316,-0.00002412,0
 .00003715,-0.00010615,-0.00002858,-0.00022057,0.00004817,-0.00002520,0
 .00009232,0.00004930,0.00002294,0.00007480,-0.00083687,-0.00019415,-0.
 00036797,0.00158920,0.00042205,0.00058426,0.00004089,0.00028822,0.0000
 3577,0.00011081,-0.00001993,0.00011520,-0.00003167,-0.00000946,-0.0000
 1845,-0.00011916,-0.00000504,-0.00014397,0.00012178,0.00000697,-0.0001
 8622,-0.00001620,0.00001779,0.00004239,-0.00000952,0.00000527,0.000160
 72,0.00002148,-0.00008699,-0.00008940,-0.00001554,0.00003170,0.0000246
 1,0.00000890,0.00003631,0.00003759,-0.00001828,-0.00020551,-0.00175554
 ,-0.00001099,-0.00006608,0.00072044,-0.00020693,-0.00172002,0.00072255
 ,-0.00193758,-0.00006238,0.00052796,0.00024150,0.00047204,0.00000722,0
 .00035508,-0.00040814,0.00001990,0.12475938,0.19311740,-0.13022914,-0.
 10478952,-0.17081043,0.11936156,-0.00025933,0.00003904,-0.00029262,-0.
 00026296,0.00021658,-0.00017516,0.00001201,0.00002362,0.00021123,-0.00
 009824,0.00004442,-0.00040566,0.00011007,-0.00006963,0.00021279,-0.000
 04181,0.00000492,-0.00000996,-0.00000456,0.00000005,0.00000813,0.00005
 859,-0.00003733,0.00036970,0.00025411,-0.00000641,0.00006484,0.0003060
 0,-0.00011622,0.00012375,-0.00022325,-0.00009685,-0.00022960,0.0000014
 5,-0.00006732,-0.00009880,-0.00002265,-0.00011620,0.00012252,0.0000191
 5,0.00001243,-0.00003389,-0.00001389,0.00011304,-0.00015482,-0.0000537
 0,0.00005061,0.00009953,0.00002292,-0.00000668,-0.00003332,0.00001258,
 -0.00002613,-0.00003152,0.00007948,0.00002838,0.00004344,-0.00003930,-
 0.00000864,-0.00002303,-0.00003470,-0.00000108,-0.00002550,0.00026124,
 0.00001548,-0.00008881,-0.00008870,-0.00003972,-0.00002876,-0.00007243
 ,0.00002195,0.00004801,0.00008003,-0.00012728,0.00007061,-0.00001466,0
 .00003973,-0.00000416,-0.00000763,0.00004540,-0.00004674,0.00006526,-0
 .00000457,0.00001913,-0.00004293,0.00001363,-0.00000514,-0.00003102,0.
 00000304,-0.00000321,-0.00044519,0.00010133,0.00014478,0.00029622,0.00
 008816,0.00005489,0.00033913,-0.00034084,-0.00034670,0.00004360,0.0000
 4091,0.00002902,-0.00001818,-0.00002126,-0.00001423,-0.00002822,-0.000
 01816,-0.00001518,0.00009376,0.00004069,0.00002285,-0.00002963,-0.0000
 0603,0.00000442,-0.00005116,-0.00003815,-0.00001261,-0.00007125,-0.000
 01710,0.00009892,0.00003194,0.00000405,-0.00002240,0.00004264,0.000005
 60,-0.00007953,0.00002313,0.00006666,0.00003528,-0.00001996,-0.0000390
 0,-0.00002233,-0.00001161,-0.00002092,-0.00001434,-0.00044870,-0.00013
 929,0.00003415,0.00036884,0.00030046,-0.00015238,0.00017467,-0.0000677
 9,0.00006815,0.00013987,-0.00025163,0.00020909,-0.00004708,0.00008677,
 -0.00001537,-0.00004644,0.00009638,-0.00012881,0.00030459,-0.00054757,
 0.00053726,-0.00052949,0.00079285,-0.00081021,-0.00018958,0.00003634,-
 0.00018546,0.00004648,0.00000295,0.00008981,-0.00001086,-0.00001200,-0
 .00002228,-0.00005976,-0.00001041,-0.00009519,0.00006122,0.00009832,0.
 00002789,-0.00002929,-0.00003414,-0.00000221,-0.00003627,-0.00007215,-
 0.00001124,0.00007029,-0.00004729,0.00000256,-0.00002687,0.00001545,-0
 .00000237,-0.00003879,0.00003494,-0.00000977,-0.00014456,0.00061347,0.
 00010669,0.00030941,-0.00010639,-0.00001713,0.00000855,-0.00031050,-0.
 00011719,0.00095082,0.00052087,-0.00052005,-0.00009138,-0.00018503,0.0
 0010915,-0.00056083,0.00007142,0.00033878,-0.30313934,-0.09992466,-0.2
 3945858,-0.01850459,-0.00355067,-0.02200000,0.32261312,-0.00018031,-0.
 00013255,-0.00004560,-0.00011773,0.00014591,-0.00004133,0.00002000,-0.
 00005884,0.00003566,-0.00009615,0.00013401,-0.00008793,0.00010863,-0.0
 0004114,0.00000406,0.00002508,0.00001429,-0.00000030,0.00001056,0.0000
 0792,0.00000481,0.00002812,-0.00006645,0.00008013,-0.00030436,-0.00036
 175,-0.00016552,0.00018441,-0.00009105,0.00000239,-0.00005762,0.000023
 44,0.00007479,-0.00003881,0.00001483,-0.00000257,-0.00005961,-0.000109
 63,-0.00002435,0.00001714,0.00001043,0.00001559,0.00001472,0.00011839,
 -0.00005449,0.00002920,-0.00004967,0.00002906,-0.00000197,0.00002499,-
 0.00001272,-0.00001554,0.00001386,-0.00001254,0.00001761,-0.00002755,-
 0.00001108,-0.00000996,0.00001768,0.00001934,-0.00000694,0.00000806,-0
 .00000067,-0.00002486,-0.00007834,-0.00002578,0.00001080,0.00003770,0.
 00003255,0.00003036,0.00003419,0.00000191,-0.00013316,0.00001908,-0.00
 006306,0.00003063,0.00000397,-0.00000025,0.00003142,0.00002680,0.00005
 037,0.00000283,-0.00003234,-0.00001460,0.00000479,0.00002869,0.0000103
 0,0.00000232,0.00001155,0.00000154,0.00023664,0.00002457,0.00034747,-0
 .00004445,-0.00023364,-0.00032569,-0.00034826,0.00011824,-0.00014711,0
 .00003567,-0.00002855,0.00001032,-0.00000914,0.00001993,-0.00000469,-0
 .00001503,0.00001100,-0.00000528,0.00002496,-0.00005599,-0.00002136,-0
 .00001019,0.00001508,-0.00000191,-0.00003009,0.00004488,0.00000843,-0.
 00000366,-0.00006796,0.00001001,-0.00000080,0.00001933,-0.00000564,-0.
 00000061,0.00003064,-0.00001912,0.00006669,-0.00002055,0.00003426,-0.0
 0003537,0.00002000,-0.00001383,-0.00003355,0.00001732,-0.00001117,-0.0
 0046633,0.00019122,-0.00068617,0.00063442,0.00020040,0.00057405,0.0000
 1753,-0.00006930,0.00022284,-0.00030411,-0.00004062,-0.00030676,0.0001
 0537,-0.00000011,0.00003293,0.00007875,-0.00000836,0.00013984,-0.00002
 341,-0.00155757,0.00050038,0.00012294,0.00187119,-0.00124717,0.0000519
 9,0.00041105,0.00020696,0.00001350,-0.00002185,0.00000990,-0.00000467,
 0.00000795,-0.00000173,-0.00001375,0.00001177,-0.00001348,0.00006884,-
 0.00004946,-0.00000865,-0.00002592,0.00001196,0.00000497,-0.00006588,0
 .00002696,0.00000222,-0.00006009,-0.00005558,-0.00001908,0.00001370,0.
 00001753,0.00000902,0.00006088,0.00001831,0.00000780,0.00065503,0.0006
 2645,0.00042328,-0.00015956,-0.00077636,-0.00022122,-0.00046139,0.0002
 0499,-0.00033649,0.00000018,-0.00046682,0.00000094,-0.00000943,0.00002
 790,-0.00000858,0.00036136,0.00026187,-0.00010454,-0.07326045,-0.04325
 338,-0.03244316,-0.02949697,-0.00649345,-0.02444638,0.10429488,0.05234
 600,-0.00059856,0.00049475,-0.00025514,-0.00010075,0.00010856,-0.00000
 479,0.00004266,-0.00005609,-0.00000126,-0.00015925,0.00011865,-0.00004
 691,0.00012038,-0.00021380,0.00015181,0.00001253,-0.00001086,0.0000214
 3,-0.00000177,-0.00000145,0.00000550,0.00008394,-0.00003137,0.00006888
 ,0.00055651,-0.00007496,0.00040883,0.00029127,-0.00011165,-0.00019087,
 -0.00017830,0.00000130,0.00027382,-0.00003278,-0.00000038,-0.00001411,
 0.00007542,-0.00004307,-0.00000465,-0.00001881,0.00001665,-0.00000491,
 -0.00005953,0.00002540,-0.00000827,0.00004174,0.00000842,0.00002138,-0
 .00001580,-0.00000244,-0.00001421,-0.00001971,-0.00001071,-0.00000528,
 0.00004433,-0.00000154,-0.00001904,-0.00002287,0.00000973,0.00002864,-
 0.00002118,0.00000197,0.00000197,-0.00015914,-0.00002926,-0.00006382,0
 .00004953,0.00004519,0.00009383,0.00004892,-0.00000345,0.00001748,0.00
 002439,-0.00001868,-0.00004531,-0.00001128,0.00001139,0.00000758,-0.00
 003413,0.00002735,0.00003199,0.00002278,-0.00000449,-0.00004471,-0.000
 01695,0.00000998,0.00002031,-0.00000401,-0.00000205,0.00001754,0.00033
 529,0.00026127,0.00016810,-0.00006624,-0.00034259,-0.00009281,-0.00044
 779,0.00005360,-0.00009714,0.00003498,0.00000835,-0.00001163,-0.000013
 96,-0.00000416,0.00000235,-0.00001358,-0.00000576,0.00001414,-0.000001
 65,-0.00000950,-0.00009560,-0.00000066,-0.00000403,0.00001108,-0.00002
 928,-0.00000155,0.00004874,0.00006321,-0.00002431,0.00002770,-0.000022
 02,0.00000938,-0.00001874,-0.00002848,0.00000607,-0.00000657,0.0000592
 2,0.00003168,-0.00000926,-0.00003508,-0.00001840,0.00001875,-0.0000272
 9,-0.00000224,0.00000210,0.00025842,-0.00031695,0.00009627,-0.00031430
 ,0.00016544,-0.00014116,-0.00005342,0.00016746,-0.00010370,0.00000592,
 -0.00002785,-0.00019673,0.00004137,-0.00002034,0.00008381,-0.00001632,
 0.00000600,0.00004724,0.00019780,0.00029682,-0.00002359,-0.00027343,-0
 .00090246,0.00010661,-0.00013069,0.00012157,-0.00001139,0.00004216,-0.
 00000427,0.00001832,-0.00001420,-0.00000273,-0.00000206,-0.00003650,-0
 .00000167,-0.00002582,0.00004502,-0.00001019,-0.00006146,-0.00000722,0
 .00000686,0.00002253,-0.00002102,0.00000179,0.00004716,0.00001868,-0.0
 0002093,-0.00004578,-0.00000769,0.00000882,0.00001233,-0.00001324,0.00
 000704,0.00002779,0.00003918,0.00032920,-0.00040243,0.00000469,-0.0001
 7463,0.00029279,-0.00015067,-0.00033347,-0.00005174,-0.00076439,-0.000
 26859,-0.00031397,0.00007631,0.00007203,-0.00005834,0.00047517,-0.0000
 1935,0.00013581,-0.27932050,-0.06676554,-0.26075728,0.01744336,0.00917
 159,0.01080273,0.25956973,0.06184877,0.24638025\\-0.06229332,0.0670351
 9,-0.05484788,0.00221790,0.00376894,0.05100205,0.01093611,-0.01329308,
 0.00019930,0.02898827,-0.01305865,-0.04458622,0.00857282,-0.01977576,0
 .03871653,0.00722743,-0.01595715,-0.02125293,-0.02706605,0.02982824,-0
 .01108408,-0.00512748,0.00074936,0.00220594,0.03026634,-0.02726692,0.0
 1798863,0.01446257,-0.02164983,-0.03772802,0.01150746,0.00356125,0.058
 38531,-0.01272333,0.01007981,-0.00078899,-0.01168763,0.02058766,0.0066
 1224,0.00065011,-0.00226466,-0.00974495,0.01139496,-0.01195423,0.00531
 046,0.01424648,-0.00701678,0.01136027,-0.00820953,0.00791327,-0.018895
 62,-0.02109179,-0.00893157,-0.00475693,-0.00807927,-0.01343775,-0.0163
 9267,-0.00354047,0.00759843,0.02346421,-0.00145154,0.00619389,-0.01240
 274,0.01279483,-0.00717238,0.01292397,-0.01039564,-0.00663800,-0.01832
 836,-0.00300254,0.01625033,0.00141255,-0.00887452,-0.00057933,0.007904
 31,-0.01596233,0.01984457,-0.01092143,0.00915909,-0.00730805,-0.018502
 31,0.00043869,-0.00213769,-0.00448264,0.00919923,0.00775860,0.00241985
 ,-0.01790716,-0.00159161,0.01331603,-0.00335133,-0.00233871,-0.0115945
 4,0.00863554,-0.00542557,0.01216778,-0.00360200,0.00788322,0.00256787,
 0.00284839,-0.02040437,-0.00850951,-0.00188625,0.01237687,-0.00263406,
 -0.00527564,-0.00062897,0.01736381,-0.00125995,0.00913748,0.01240764,-
 0.00774310,-0.00177290,-0.00366293,0.00929075,-0.01080523,-0.00869635,
 0.00378992,0.01310446,-0.00043186,0.00567504,-0.00260339,-0.01147962,-
 0.01144672,-0.00702904,0.00984143,0.01949929,-0.01578597,-0.00931459,-
 0.00367032,0.00102922,0.01226400,-0.01511024,0.01207267,-0.00238030,0.
 00918070,0.02880395,0.00664296,-0.01375585,-0.01145946,-0.00304262,0.0
 1159385,-0.00556344,-0.00870164,0.01865426,-0.02240305,0.00969961,-0.0
 0634167,0.00449408,0.01079521,-0.00077601,0.01059004,0.00029337,0.0002
 5244,0.00358811,-0.00728127,0.00869082,-0.01410331,0.00532306,-0.00979
 662,0.00641343,0.01185996,-0.01763866,0.01247232,-0.01369721,-0.009671
 36,-0.02571390,-0.00209705,0.01378453,0.00263057,0.01327106,0.00520530
 ,0.01254255,-0.01075021,-0.01799522,-0.01217621,0.00852032,0.01165474,
 -0.00921840,0.00764199,-0.01319130,-0.01463685,0.01353848,-0.01094772,
 0.00515492,-0.01688241,0.01425175,0.00470447,-0.00461121,0.00325207,-0
 .00166479,0.02326601,0.01544414,-0.00223403,-0.00839273,-0.01050007,0.
 00351228,-0.01042535,0.01118441,-0.01341506,-0.01459539,-0.01135752,0.
 00085010,0.00775092,-0.00491454,0.02178832,0.00899966,-0.00337919,0.00
 622576,-0.01177837,-0.00736515,-0.00640560,0.00281248,0.01015983,-0.00
 047771,0.00864054\\\@


 EDUCATION DOESN'T COST 
           ... IT PAYS!

 -- POSTMARK, UNIV. OF MISSISSIPPI, DEC 78
 Job cpu time:       1 days 11 hours 55 minutes 37.7 seconds.
 Elapsed time:       0 days  1 hours  7 minutes 59.1 seconds.
 File lengths (MBytes):  RWF=   3790 Int=      0 D2E=      0 Chk=     40 Scr=      1
 Normal termination of Gaussian 16 at Fri Sep 16 19:32:33 2022.
