Thymine TDDFT excited state 6                                           
Freq      RCAM-B3LYP TD-FC                                            6-311+G(d,p)        
Number of atoms                            I               15
Info1-9                                    I   N=           9
          24          24           0           0           0         100
           6         218        4001
Full Title                                 C   N=           3
Thymine TDDFT excited state 6       
Route                                      C   N=           6
#p freq td=(nstates=10,root=6) cam-b3lyp/6-311+G(d,p) symm=l
oose        
Charge                                     I                0
Multiplicity                               I                1
Number of electrons                        I               66
Number of alpha electrons                  I               33
Number of beta electrons                   I               33
Number of basis functions                  I              234
Number of independent functions            I              234
Number of point charges in /Mol/           I                0
Number of translation vectors              I                0
Atomic numbers                             I   N=          15
           7           6           7           6           6           6
           8           8           1           1           6           1
           1           1           1
Nuclear charges                            R   N=          15
  7.00000000E+00  6.00000000E+00  7.00000000E+00  6.00000000E+00  6.00000000E+00
  6.00000000E+00  8.00000000E+00  8.00000000E+00  1.00000000E+00  1.00000000E+00
  6.00000000E+00  1.00000000E+00  1.00000000E+00  1.00000000E+00  1.00000000E+00
Current cartesian coordinates              R   N=          45
  2.94294608E-01 -3.13517280E+00  0.00000000E+00  2.56247240E+00 -1.84993794E+00
  0.00000000E+00  2.26001796E+00  7.38996298E-01  0.00000000E+00 -2.61491353E-16
  2.10772304E+00  0.00000000E+00 -2.29467176E+00  5.59130276E-01  0.00000000E+00
 -2.02886099E+00 -1.96021102E+00  0.00000000E+00  4.59405649E+00 -2.89240347E+00
  0.00000000E+00  3.33272099E-02  4.39589792E+00  0.00000000E+00  4.35152904E-01
 -5.03456866E+00  0.00000000E+00  3.87363620E+00  1.76477932E+00  0.00000000E+00
 -4.78752098E+00  1.89022501E+00  0.00000000E+00 -3.63777759E+00 -3.22408064E+00
  0.00000000E+00 -6.34596489E+00  5.41397086E-01  0.00000000E+00 -4.96639679E+00
  3.10809870E+00  1.65564953E+00 -4.96639679E+00  3.10809870E+00 -1.65564953E+00
Number of symbols in /Mol/                 I                0
Force Field                                I                0
Atom Types                                 C   N=          15
                                                            
                                                            
                                                            
Int Atom Types                             I   N=          15
           0           0           0           0           0           0
           0           0           0           0           0           0
           0           0           0
MM charges                                 R   N=          15
  0.00000000E+00  0.00000000E+00  0.00000000E+00  0.00000000E+00  0.00000000E+00
  0.00000000E+00  0.00000000E+00  0.00000000E+00  0.00000000E+00  0.00000000E+00
  0.00000000E+00  0.00000000E+00  0.00000000E+00  0.00000000E+00  0.00000000E+00
Integer atomic weights                     I   N=          15
          14          12          14          12          12          12
          16          16           1           1          12           1
           1           1           1
Real atomic weights                        R   N=          15
  1.40030740E+01  1.20000000E+01  1.40030740E+01  1.20000000E+01  1.20000000E+01
  1.20000000E+01  1.59949146E+01  1.59949146E+01  1.00782504E+00  1.00782504E+00
  1.20000000E+01  1.00782504E+00  1.00782504E+00  1.00782504E+00  1.00782504E+00
Atom fragment info                         I   N=          15
           0           0           0           0           0           0
           0           0           0           0           0           0
           0           0           0
Atom residue num                           I   N=          15
           0           0           0           0           0           0
           0           0           0           0           0           0
           0           0           0
Nuclear spins                              I   N=          15
           2           0           2           0           0           0
           0           0           1           1           0           1
           1           1           1
Nuclear ZEff                               R   N=          15
 -4.55000000E+00 -3.60000000E+00 -4.55000000E+00 -3.60000000E+00 -3.60000000E+00
 -3.60000000E+00 -5.60000000E+00 -5.60000000E+00 -1.00000000E+00 -1.00000000E+00
 -3.60000000E+00 -1.00000000E+00 -1.00000000E+00 -1.00000000E+00 -1.00000000E+00
Nuclear ZNuc                               R   N=          15
  7.00000000E+00  6.00000000E+00  7.00000000E+00  6.00000000E+00  6.00000000E+00
  6.00000000E+00  8.00000000E+00  8.00000000E+00  1.00000000E+00  1.00000000E+00
  6.00000000E+00  1.00000000E+00  1.00000000E+00  1.00000000E+00  1.00000000E+00
Nuclear QMom                               R   N=          15
  2.04400000E+00  0.00000000E+00  2.04400000E+00  0.00000000E+00  0.00000000E+00
  0.00000000E+00  0.00000000E+00  0.00000000E+00  0.00000000E+00  0.00000000E+00
  0.00000000E+00  0.00000000E+00  0.00000000E+00  0.00000000E+00  0.00000000E+00
Nuclear GFac                               R   N=          15
  4.03761000E-01  0.00000000E+00  4.03761000E-01  0.00000000E+00  0.00000000E+00
  0.00000000E+00  0.00000000E+00  0.00000000E+00  2.79284600E+00  2.79284600E+00
  0.00000000E+00  2.79284600E+00  2.79284600E+00  2.79284600E+00  2.79284600E+00
MicOpt                                     I   N=          15
          -1          -1          -1          -1          -1          -1
          -1          -1          -1          -1          -1          -1
          -1          -1          -1
Number of residues                         I                0
Number of secondary structures             I                0
SymInf integers                            I   N=          26
           2           2           1           1           1           1
           1          -1           0           0           0           0
           0           0           0           0           0           0
           0           0           0           0           0           0
           0           0
RotTr to input orientation                 R   N=          12
  1.00000000E+00  1.63013173E-07  0.00000000E+00 -1.63013173E-07  1.00000000E+00
  0.00000000E+00  0.00000000E+00  0.00000000E+00  1.00000000E+00  3.43586568E-07
  3.14954354E-07  0.00000000E+00
Number of contracted shells                I               78
Number of primitive shells                 I              153
Pure/Cartesian d shells                    I                0
Pure/Cartesian f shells                    I                0
Highest angular momentum                   I                2
Largest degree of contraction              I                6
Shell types                                I   N=          78
           0          -1          -1          -1          -1          -2
           0          -1          -1          -1          -1          -2
           0          -1          -1          -1          -1          -2
           0          -1          -1          -1          -1          -2
           0          -1          -1          -1          -1          -2
           0          -1          -1          -1          -1          -2
           0          -1          -1          -1          -1          -2
           0          -1          -1          -1          -1          -2
           0           0           0           1           0           0
           0           1           0          -1          -1          -1
          -1          -2           0           0           0           1
           0           0           0           1           0           0
           0           1           0           0           0           1
Number of primitives per shell             I   N=          78
           6           3           1           1           1           1
           6           3           1           1           1           1
           6           3           1           1           1           1
           6           3           1           1           1           1
           6           3           1           1           1           1
           6           3           1           1           1           1
           6           3           1           1           1           1
           6           3           1           1           1           1
           3           1           1           1           3           1
           1           1           6           3           1           1
           1           1           3           1           1           1
           3           1           1           1           3           1
           1           1           3           1           1           1
Shell to atom map                          I   N=          78
           1           1           1           1           1           1
           2           2           2           2           2           2
           3           3           3           3           3           3
           4           4           4           4           4           4
           5           5           5           5           5           5
           6           6           6           6           6           6
           7           7           7           7           7           7
           8           8           8           8           8           8
           9           9           9           9          10          10
          10          10          11          11          11          11
          11          11          12          12          12          12
          13          13          13          13          14          14
          14          14          15          15          15          15
Primitive exponents                        R   N=         153
  6.29348000E+03  9.49044000E+02  2.18776000E+02  6.36916000E+01  1.88282000E+01
  2.72023000E+00  3.06331000E+01  7.02614000E+00  2.11205000E+00  6.84009000E-01
  2.00878000E-01  6.39000000E-02  9.13000000E-01  4.56324000E+03  6.82024000E+02
  1.54973000E+02  4.44553000E+01  1.30290000E+01  1.82773000E+00  2.09642000E+01
  4.80331000E+00  1.45933000E+00  4.83456000E-01  1.45585000E-01  4.38000000E-02
  6.26000000E-01  6.29348000E+03  9.49044000E+02  2.18776000E+02  6.36916000E+01
  1.88282000E+01  2.72023000E+00  3.06331000E+01  7.02614000E+00  2.11205000E+00
  6.84009000E-01  2.00878000E-01  6.39000000E-02  9.13000000E-01  4.56324000E+03
  6.82024000E+02  1.54973000E+02  4.44553000E+01  1.30290000E+01  1.82773000E+00
  2.09642000E+01  4.80331000E+00  1.45933000E+00  4.83456000E-01  1.45585000E-01
  4.38000000E-02  6.26000000E-01  4.56324000E+03  6.82024000E+02  1.54973000E+02
  4.44553000E+01  1.30290000E+01  1.82773000E+00  2.09642000E+01  4.80331000E+00
  1.45933000E+00  4.83456000E-01  1.45585000E-01  4.38000000E-02  6.26000000E-01
  4.56324000E+03  6.82024000E+02  1.54973000E+02  4.44553000E+01  1.30290000E+01
  1.82773000E+00  2.09642000E+01  4.80331000E+00  1.45933000E+00  4.83456000E-01
  1.45585000E-01  4.38000000E-02  6.26000000E-01  8.58850000E+03  1.29723000E+03
  2.99296000E+02  8.73771000E+01  2.56789000E+01  3.74004000E+00  4.21175000E+01
  9.62837000E+00  2.85332000E+00  9.05661000E-01  2.55611000E-01  8.45000000E-02
  1.29200000E+00  8.58850000E+03  1.29723000E+03  2.99296000E+02  8.73771000E+01
  2.56789000E+01  3.74004000E+00  4.21175000E+01  9.62837000E+00  2.85332000E+00
  9.05661000E-01  2.55611000E-01  8.45000000E-02  1.29200000E+00  3.38650000E+01
  5.09479000E+00  1.15879000E+00  3.25840000E-01  1.02741000E-01  7.50000000E-01
  3.38650000E+01  5.09479000E+00  1.15879000E+00  3.25840000E-01  1.02741000E-01
  7.50000000E-01  4.56324000E+03  6.82024000E+02  1.54973000E+02  4.44553000E+01
  1.30290000E+01  1.82773000E+00  2.09642000E+01  4.80331000E+00  1.45933000E+00
  4.83456000E-01  1.45585000E-01  4.38000000E-02  6.26000000E-01  3.38650000E+01
  5.09479000E+00  1.15879000E+00  3.25840000E-01  1.02741000E-01  7.50000000E-01
  3.38650000E+01  5.09479000E+00  1.15879000E+00  3.25840000E-01  1.02741000E-01
  7.50000000E-01  3.38650000E+01  5.09479000E+00  1.15879000E+00  3.25840000E-01
  1.02741000E-01  7.50000000E-01  3.38650000E+01  5.09479000E+00  1.15879000E+00
  3.25840000E-01  1.02741000E-01  7.50000000E-01
Contraction coefficients                   R   N=         153
  1.96978815E-03  1.49612859E-02  7.35005308E-02  2.48936766E-01  6.02459433E-01
  2.56201759E-01  1.11906080E-01  9.21666655E-01 -2.56919183E-03  1.00000000E+00
  1.00000000E+00  1.00000000E+00  1.00000000E+00  1.96665025E-03  1.52306019E-02
  7.61269097E-02  2.60801033E-01  6.16462078E-01  2.21006028E-01  1.14660081E-01
  9.19999648E-01 -3.03068213E-03  1.00000000E+00  1.00000000E+00  1.00000000E+00
  1.00000000E+00  1.96978815E-03  1.49612859E-02  7.35005308E-02  2.48936766E-01
  6.02459433E-01  2.56201759E-01  1.11906080E-01  9.21666655E-01 -2.56919183E-03
  1.00000000E+00  1.00000000E+00  1.00000000E+00  1.00000000E+00  1.96665025E-03
  1.52306019E-02  7.61269097E-02  2.60801033E-01  6.16462078E-01  2.21006028E-01
  1.14660081E-01  9.19999648E-01 -3.03068213E-03  1.00000000E+00  1.00000000E+00
  1.00000000E+00  1.00000000E+00  1.96665025E-03  1.52306019E-02  7.61269097E-02
  2.60801033E-01  6.16462078E-01  2.21006028E-01  1.14660081E-01  9.19999648E-01
 -3.03068213E-03  1.00000000E+00  1.00000000E+00  1.00000000E+00  1.00000000E+00
  1.96665025E-03  1.52306019E-02  7.61269097E-02  2.60801033E-01  6.16462078E-01
  2.21006028E-01  1.14660081E-01  9.19999648E-01 -3.03068213E-03  1.00000000E+00
  1.00000000E+00  1.00000000E+00  1.00000000E+00  1.89515008E-03  1.43859006E-02
  7.07320031E-02  2.40001011E-01  5.94797026E-01  2.80802012E-01  1.13889012E-01
  9.20811101E-01 -3.27447036E-03  1.00000000E+00  1.00000000E+00  1.00000000E+00
  1.00000000E+00  1.89515008E-03  1.43859006E-02  7.07320031E-02  2.40001011E-01
  5.94797026E-01  2.80802012E-01  1.13889012E-01  9.20811101E-01 -3.27447036E-03
  1.00000000E+00  1.00000000E+00  1.00000000E+00  1.00000000E+00  2.54938145E-02
  1.90373109E-01  8.52161486E-01  1.00000000E+00  1.00000000E+00  1.00000000E+00
  2.54938145E-02  1.90373109E-01  8.52161486E-01  1.00000000E+00  1.00000000E+00
  1.00000000E+00  1.96665025E-03  1.52306019E-02  7.61269097E-02  2.60801033E-01
  6.16462078E-01  2.21006028E-01  1.14660081E-01  9.19999648E-01 -3.03068213E-03
  1.00000000E+00  1.00000000E+00  1.00000000E+00  1.00000000E+00  2.54938145E-02
  1.90373109E-01  8.52161486E-01  1.00000000E+00  1.00000000E+00  1.00000000E+00
  2.54938145E-02  1.90373109E-01  8.52161486E-01  1.00000000E+00  1.00000000E+00
  1.00000000E+00  2.54938145E-02  1.90373109E-01  8.52161486E-01  1.00000000E+00
  1.00000000E+00  1.00000000E+00  2.54938145E-02  1.90373109E-01  8.52161486E-01
  1.00000000E+00  1.00000000E+00  1.00000000E+00
P(S=P) Contraction coefficients            R   N=         153
  0.00000000E+00  0.00000000E+00  0.00000000E+00  0.00000000E+00  0.00000000E+00
  0.00000000E+00  3.83119186E-02  2.37403116E-01  8.17592398E-01  1.00000000E+00
  1.00000000E+00  1.00000000E+00  0.00000000E+00  0.00000000E+00  0.00000000E+00
  0.00000000E+00  0.00000000E+00  0.00000000E+00  0.00000000E+00  4.02486927E-02
  2.37593957E-01  8.15853851E-01  1.00000000E+00  1.00000000E+00  1.00000000E+00
  0.00000000E+00  0.00000000E+00  0.00000000E+00  0.00000000E+00  0.00000000E+00
  0.00000000E+00  0.00000000E+00  3.83119186E-02  2.37403116E-01  8.17592398E-01
  1.00000000E+00  1.00000000E+00  1.00000000E+00  0.00000000E+00  0.00000000E+00
  0.00000000E+00  0.00000000E+00  0.00000000E+00  0.00000000E+00  0.00000000E+00
  4.02486927E-02  2.37593957E-01  8.15853851E-01  1.00000000E+00  1.00000000E+00
  1.00000000E+00  0.00000000E+00  0.00000000E+00  0.00000000E+00  0.00000000E+00
  0.00000000E+00  0.00000000E+00  0.00000000E+00  4.02486927E-02  2.37593957E-01
  8.15853851E-01  1.00000000E+00  1.00000000E+00  1.00000000E+00  0.00000000E+00
  0.00000000E+00  0.00000000E+00  0.00000000E+00  0.00000000E+00  0.00000000E+00
  0.00000000E+00  4.02486927E-02  2.37593957E-01  8.15853851E-01  1.00000000E+00
  1.00000000E+00  1.00000000E+00  0.00000000E+00  0.00000000E+00  0.00000000E+00
  0.00000000E+00  0.00000000E+00  0.00000000E+00  0.00000000E+00  3.65113974E-02
  2.37152983E-01  8.19701941E-01  1.00000000E+00  1.00000000E+00  1.00000000E+00
  0.00000000E+00  0.00000000E+00  0.00000000E+00  0.00000000E+00  0.00000000E+00
  0.00000000E+00  0.00000000E+00  3.65113974E-02  2.37152983E-01  8.19701941E-01
  1.00000000E+00  1.00000000E+00  1.00000000E+00  0.00000000E+00  0.00000000E+00
  0.00000000E+00  0.00000000E+00  0.00000000E+00  0.00000000E+00  0.00000000E+00
  0.00000000E+00  0.00000000E+00  0.00000000E+00  0.00000000E+00  0.00000000E+00
  0.00000000E+00  0.00000000E+00  0.00000000E+00  0.00000000E+00  0.00000000E+00
  0.00000000E+00  0.00000000E+00  4.02486927E-02  2.37593957E-01  8.15853851E-01
  1.00000000E+00  1.00000000E+00  1.00000000E+00  0.00000000E+00  0.00000000E+00
  0.00000000E+00  0.00000000E+00  0.00000000E+00  0.00000000E+00  0.00000000E+00
  0.00000000E+00  0.00000000E+00  0.00000000E+00  0.00000000E+00  0.00000000E+00
  0.00000000E+00  0.00000000E+00  0.00000000E+00  0.00000000E+00  0.00000000E+00
  0.00000000E+00  0.00000000E+00  0.00000000E+00  0.00000000E+00  0.00000000E+00
  0.00000000E+00  0.00000000E+00  0.00000000E+00
Coordinates of each shell                  R   N=         234
  2.94293754E-01 -3.13517317E+00  0.00000000E+00  2.94293754E-01 -3.13517317E+00
  0.00000000E+00  2.94293754E-01 -3.13517317E+00  0.00000000E+00  2.94293754E-01
 -3.13517317E+00  0.00000000E+00  2.94293754E-01 -3.13517317E+00  0.00000000E+00
  2.94293754E-01 -3.13517317E+00  0.00000000E+00  2.56247176E+00 -1.84993867E+00
  0.00000000E+00  2.56247176E+00 -1.84993867E+00  0.00000000E+00  2.56247176E+00
 -1.84993867E+00  0.00000000E+00  2.56247176E+00 -1.84993867E+00  0.00000000E+00
  2.56247176E+00 -1.84993867E+00  0.00000000E+00  2.56247176E+00 -1.84993867E+00
  0.00000000E+00  2.26001774E+00  7.38995615E-01  0.00000000E+00  2.26001774E+00
  7.38995615E-01  0.00000000E+00  2.26001774E+00  7.38995615E-01  0.00000000E+00
  2.26001774E+00  7.38995615E-01  0.00000000E+00  2.26001774E+00  7.38995615E-01
  0.00000000E+00  2.26001774E+00  7.38995615E-01  0.00000000E+00 -1.49375466E-17
  2.10772273E+00  0.00000000E+00 -1.49375466E-17  2.10772273E+00  0.00000000E+00
 -1.49375466E-17  2.10772273E+00  0.00000000E+00 -1.49375466E-17  2.10772273E+00
  0.00000000E+00 -1.49375466E-17  2.10772273E+00  0.00000000E+00 -1.49375466E-17
  2.10772273E+00  0.00000000E+00 -2.29467201E+00  5.59130335E-01  0.00000000E+00
 -2.29467201E+00  5.59130335E-01  0.00000000E+00 -2.29467201E+00  5.59130335E-01
  0.00000000E+00 -2.29467201E+00  5.59130335E-01  0.00000000E+00 -2.29467201E+00
  5.59130335E-01  0.00000000E+00 -2.29467201E+00  5.59130335E-01  0.00000000E+00
 -2.02886165E+00 -1.96021100E+00  0.00000000E+00 -2.02886165E+00 -1.96021100E+00
  0.00000000E+00 -2.02886165E+00 -1.96021100E+00  0.00000000E+00 -2.02886165E+00
 -1.96021100E+00  0.00000000E+00 -2.02886165E+00 -1.96021100E+00  0.00000000E+00
 -2.02886165E+00 -1.96021100E+00  0.00000000E+00  4.59405567E+00 -2.89240453E+00
  0.00000000E+00  4.59405567E+00 -2.89240453E+00  0.00000000E+00  4.59405567E+00
 -2.89240453E+00  0.00000000E+00  4.59405567E+00 -2.89240453E+00  0.00000000E+00
  4.59405567E+00 -2.89240453E+00  0.00000000E+00  4.59405567E+00 -2.89240453E+00
  0.00000000E+00  3.33275829E-02  4.39589760E+00  0.00000000E+00  3.33275829E-02
  4.39589760E+00  0.00000000E+00  3.33275829E-02  4.39589760E+00  0.00000000E+00
  3.33275829E-02  4.39589760E+00  0.00000000E+00  3.33275829E-02  4.39589760E+00
  0.00000000E+00  3.33275829E-02  4.39589760E+00  0.00000000E+00  4.35151740E-01
 -5.03456904E+00  0.00000000E+00  4.35151740E-01 -5.03456904E+00  0.00000000E+00
  4.35151740E-01 -5.03456904E+00  0.00000000E+00  4.35151740E-01 -5.03456904E+00
  0.00000000E+00  3.87363614E+00  1.76477838E+00  0.00000000E+00  3.87363614E+00
  1.76477838E+00  0.00000000E+00  3.87363614E+00  1.76477838E+00  0.00000000E+00
  3.87363614E+00  1.76477838E+00  0.00000000E+00 -4.78752102E+00  1.89022548E+00
  0.00000000E+00 -4.78752102E+00  1.89022548E+00  0.00000000E+00 -4.78752102E+00
  1.89022548E+00  0.00000000E+00 -4.78752102E+00  1.89022548E+00  0.00000000E+00
 -4.78752102E+00  1.89022548E+00  0.00000000E+00 -4.78752102E+00  1.89022548E+00
  0.00000000E+00 -3.63777846E+00 -3.22408036E+00  0.00000000E+00 -3.63777846E+00
 -3.22408036E+00  0.00000000E+00 -3.63777846E+00 -3.22408036E+00  0.00000000E+00
 -3.63777846E+00 -3.22408036E+00  0.00000000E+00 -6.34596514E+00  5.41397806E-01
  0.00000000E+00 -6.34596514E+00  5.41397806E-01  0.00000000E+00 -6.34596514E+00
  5.41397806E-01  0.00000000E+00 -6.34596514E+00  5.41397806E-01  0.00000000E+00
 -4.96639662E+00  3.10809919E+00  1.65564953E+00 -4.96639662E+00  3.10809919E+00
  1.65564953E+00 -4.96639662E+00  3.10809919E+00  1.65564953E+00 -4.96639662E+00
  3.10809919E+00  1.65564953E+00 -4.96639662E+00  3.10809919E+00 -1.65564953E+00
 -4.96639662E+00  3.10809919E+00 -1.65564953E+00 -4.96639662E+00  3.10809919E+00
 -1.65564953E+00 -4.96639662E+00  3.10809919E+00 -1.65564953E+00
Num ILSW                                   I              100
ILSW                                       I   N=         100
           0           0           0           0           2           0
           0           0           0           0       20419          -1
           5           0           0           0           2           0
           0           0           0           0           1           0
           1           0           0           0           0           0
           0           0      100000           0          -1           0
           0           0           0           0           0           0
           0           0           0           1           0           0
           0 -2000000000           1           0           0           0
           0           0           4          52           0           0
           0           0          40           0           0           0
           0           0           0          15           0           1
           0           0           0           0           0           0
           0           0           0           0           0           0
           0           0           0           0           0           0
           0           0           0           0           0           0
           0           0           0           0
Num RLSW                                   I               52
RLSW                                       R   N=          52
  1.00000000E+00  1.00000000E+00  1.00000000E+00  8.10000000E-01  1.00000000E+00
  0.00000000E+00  3.30000000E-01  1.90000000E-01  0.00000000E+00  4.60000000E-01
  0.00000000E+00  3.30000000E-01  1.90000000E-01  0.00000000E+00  4.60000000E-01
  0.00000000E+00  0.00000000E+00  1.00000000E+00  0.00000000E+00  0.00000000E+00
  0.00000000E+00  0.00000000E+00  1.00000000E+00  0.00000000E+00  0.00000000E+00
  0.00000000E+00  0.00000000E+00  1.00000000E+00  0.00000000E+00  0.00000000E+00
  0.00000000E+00  0.00000000E+00  1.00000000E+00  0.00000000E+00  0.00000000E+00
  0.00000000E+00  0.00000000E+00  0.00000000E+00  1.00000000E+00  1.00000000E+00
  0.00000000E+00  1.00000000E+00  0.00000000E+00  0.00000000E+00  0.00000000E+00
  0.00000000E+00  0.00000000E+00  0.00000000E+00  0.00000000E+00  0.00000000E+00
  0.00000000E+00  0.00000000E+00
MxBond                                     I                4
NBond                                      I   N=          15
           3           3           3           3           3           3
           1           1           1           1           4           1
           1           1           1
IBond                                      I   N=          60
           2           6           9           0           1           3
           7           0           2           4          10           0
           3           5           8           0           4           6
          11           0           1           5          12           0
           2           0           0           0           4           0
           0           0           1           0           0           0
           3           0           0           0           5          13
          14          15           6           0           0           0
          11           0           0           0          11           0
           0           0          11           0           0           0
RBond                                      R   N=          60
  1.41000000E+00  1.00000000E+00  1.00000000E+00  0.00000000E+00  1.41000000E+00
  1.41000000E+00  2.00000000E+00  0.00000000E+00  1.41000000E+00  1.00000000E+00
  1.00000000E+00  0.00000000E+00  1.00000000E+00  1.00000000E+00  2.00000000E+00
  0.00000000E+00  1.00000000E+00  2.00000000E+00  1.00000000E+00  0.00000000E+00
  1.00000000E+00  2.00000000E+00  1.00000000E+00  0.00000000E+00  2.00000000E+00
  0.00000000E+00  0.00000000E+00  0.00000000E+00  2.00000000E+00  0.00000000E+00
  0.00000000E+00  0.00000000E+00  1.00000000E+00  0.00000000E+00  0.00000000E+00
  0.00000000E+00  1.00000000E+00  0.00000000E+00  0.00000000E+00  0.00000000E+00
  1.00000000E+00  1.00000000E+00  1.00000000E+00  1.00000000E+00  1.00000000E+00
  0.00000000E+00  0.00000000E+00  0.00000000E+00  1.00000000E+00  0.00000000E+00
  0.00000000E+00  0.00000000E+00  1.00000000E+00  0.00000000E+00  0.00000000E+00
  0.00000000E+00  1.00000000E+00  0.00000000E+00  0.00000000E+00  0.00000000E+00
Virial Ratio                               R      2.003061530251242E+00
SCF Energy                                 R     -4.540747115427294E+02
CIS Energy                                 R     -4.538273351503276E+02
Total Energy                               R     -4.538273351503276E+02
Post-SCF wavefunction norm                 R      1.000000000000000E+00
RMS Force                                  R      2.768145016013623E-02
RMS Density                                R      7.706441577759906E-09
NImag                                      I                5
Job Status                                 I                1
Nuclear derivative order                   I                2
External E-field                           R   N=          35
  0.00000000E+00  0.00000000E+00  0.00000000E+00  0.00000000E+00  0.00000000E+00
  0.00000000E+00  0.00000000E+00  0.00000000E+00  0.00000000E+00  0.00000000E+00
  0.00000000E+00  0.00000000E+00  0.00000000E+00  0.00000000E+00  0.00000000E+00
  0.00000000E+00  0.00000000E+00  0.00000000E+00  0.00000000E+00  0.00000000E+00
  0.00000000E+00  0.00000000E+00  0.00000000E+00  0.00000000E+00  0.00000000E+00
  0.00000000E+00  0.00000000E+00  0.00000000E+00  0.00000000E+00  0.00000000E+00
  0.00000000E+00  0.00000000E+00  0.00000000E+00  0.00000000E+00  0.00000000E+00
IOpCl                                      I                0
IROHF                                      I                0
Alpha Orbital Energies                     R   N=         234
 -1.91850646E+01 -1.91838890E+01 -1.44625436E+01 -1.44486964E+01 -1.04096143E+01
 -1.03765551E+01 -1.03304678E+01 -1.02786508E+01 -1.02553988E+01 -1.17873937E+00
 -1.14626314E+00 -1.07594927E+00 -1.02248344E+00 -9.13892189E-01 -8.06316135E-01
 -7.68675782E-01 -7.51403381E-01 -6.55656288E-01 -6.51743757E-01 -6.02213486E-01
 -5.71702276E-01 -5.54569819E-01 -5.23773799E-01 -5.10577053E-01 -5.08673099E-01
 -4.82642996E-01 -4.79488536E-01 -4.65290541E-01 -4.37426429E-01 -3.76334241E-01
 -3.62634879E-01 -3.46762806E-01 -3.10709012E-01 -8.44792541E-03  9.27433319E-03
  3.49924860E-02  3.64880538E-02  4.54429766E-02  5.65801826E-02  6.16218316E-02
  7.29770270E-02  7.68141425E-02  8.72283611E-02  9.82833915E-02  1.00477825E-01
  1.07704244E-01  1.21547807E-01  1.37743372E-01  1.43453287E-01  1.48061907E-01
  1.54224500E-01  1.57187964E-01  1.69757957E-01  1.70921491E-01  1.86748406E-01
  1.88106484E-01  1.96964056E-01  2.08699532E-01  2.13654215E-01  2.29144100E-01
  2.37962038E-01  2.40882639E-01  2.41593045E-01  2.44347249E-01  2.53278727E-01
  2.58812620E-01  2.81002293E-01  2.90629240E-01  2.99951197E-01  3.00944216E-01
  3.04046870E-01  3.08218320E-01  3.26109139E-01  3.33630239E-01  3.48118013E-01
  3.50975462E-01  3.55764365E-01  3.71054670E-01  3.81182355E-01  3.95431808E-01
  4.15247601E-01  4.21260701E-01  4.36008935E-01  4.65723135E-01  4.77681458E-01
  5.20717684E-01  5.39898438E-01  5.58907807E-01  5.81227531E-01  5.94700568E-01
  5.99539284E-01  6.26674635E-01  6.30672146E-01  6.34390137E-01  6.58224428E-01
  6.61566073E-01  6.87358250E-01  7.01410848E-01  7.02780714E-01  7.20579020E-01
  7.40024338E-01  7.55084177E-01  7.79564727E-01  7.86424818E-01  8.27071276E-01
  8.40899337E-01  8.60110672E-01  8.65531244E-01  8.98909412E-01  9.02192144E-01
  9.16230056E-01  9.29760595E-01  9.68324598E-01  9.84002111E-01  1.01520579E+00
  1.02853536E+00  1.08026112E+00  1.08172259E+00  1.13638672E+00  1.16821260E+00
  1.17269596E+00  1.17730121E+00  1.20319505E+00  1.20657914E+00  1.23890622E+00
  1.24654551E+00  1.25105662E+00  1.25925184E+00  1.28923453E+00  1.29391086E+00
  1.33547930E+00  1.37330664E+00  1.40452775E+00  1.42991646E+00  1.48404481E+00