 Entering Gaussian System, Link 0=/shared/gaussian/g16.b01/AVX2/g16/g16
 Initial command:
 /shared/gaussian/g16.b01/AVX2/g16/l1.exe "/scratch/marlene/SCRGAU.132321.Uracil6311-freq/Gau-6883.inp" -scrdir="/scratch/marlene/SCRGAU.132321.Uracil6311-freq/"
 Entering Link 1 = /shared/gaussian/g16.b01/AVX2/g16/l1.exe PID=      6884.
  
 Copyright (c) 1988-2017, Gaussian, Inc.  All Rights Reserved.
  
 This is part of the Gaussian(R) 16 program.  It is based on
 the Gaussian(R) 09 system (copyright 2009, Gaussian, Inc.),
 the Gaussian(R) 03 system (copyright 2003, Gaussian, Inc.),
 the Gaussian(R) 98 system (copyright 1998, Gaussian, Inc.),
 the Gaussian(R) 94 system (copyright 1995, Gaussian, Inc.),
 the Gaussian 92(TM) system (copyright 1992, Gaussian, Inc.),
 the Gaussian 90(TM) system (copyright 1990, Gaussian, Inc.),
 the Gaussian 88(TM) system (copyright 1988, Gaussian, Inc.),
 the Gaussian 86(TM) system (copyright 1986, Carnegie Mellon
 University), and the Gaussian 82(TM) system (copyright 1983,
 Carnegie Mellon University). Gaussian is a federally registered
 trademark of Gaussian, Inc.
  
 This software contains proprietary and confidential information,
 including trade secrets, belonging to Gaussian, Inc.
  
 This software is provided under written license and may be
 used, copied, transmitted, or stored only in accord with that
 written license.
  
 The following legend is applicable only to US Government
 contracts under FAR:
  
                    RESTRICTED RIGHTS LEGEND
  
 Use, reproduction and disclosure by the US Government is
 subject to restrictions as set forth in subparagraphs (a)
 and (c) of the Commercial Computer Software - Restricted
 Rights clause in FAR 52.227-19.
  
 Gaussian, Inc.
 340 Quinnipiac St., Bldg. 40, Wallingford CT 06492
  
  
 ---------------------------------------------------------------
 Warning -- This program may not be used in any manner that
 competes with the business of Gaussian, Inc. or will provide
 assistance to any competitor of Gaussian, Inc.  The licensee
 of this program is prohibited from giving any competitor of
 Gaussian, Inc. access to this program.  By using this program,
 the user acknowledges that Gaussian, Inc. is engaged in the
 business of creating and licensing software in the field of
 computational chemistry and represents and warrants to the
 licensee that it is not a competitor of Gaussian, Inc. and that
 it will not use this program in any manner prohibited above.
 ---------------------------------------------------------------
  

 Cite this work as:
 Gaussian 16, Revision B.01,
 M. J. Frisch, G. W. Trucks, H. B. Schlegel, G. E. Scuseria, 
 M. A. Robb, J. R. Cheeseman, G. Scalmani, V. Barone, 
 G. A. Petersson, H. Nakatsuji, X. Li, M. Caricato, A. V. Marenich, 
 J. Bloino, B. G. Janesko, R. Gomperts, B. Mennucci, H. P. Hratchian, 
 J. V. Ortiz, A. F. Izmaylov, J. L. Sonnenberg, D. Williams-Young, 
 F. Ding, F. Lipparini, F. Egidi, J. Goings, B. Peng, A. Petrone, 
 T. Henderson, D. Ranasinghe, V. G. Zakrzewski, J. Gao, N. Rega, 
 G. Zheng, W. Liang, M. Hada, M. Ehara, K. Toyota, R. Fukuda, 
 J. Hasegawa, M. Ishida, T. Nakajima, Y. Honda, O. Kitao, H. Nakai, 
 T. Vreven, K. Throssell, J. A. Montgomery, Jr., J. E. Peralta, 
 F. Ogliaro, M. J. Bearpark, J. J. Heyd, E. N. Brothers, K. N. Kudin, 
 V. N. Staroverov, T. A. Keith, R. Kobayashi, J. Normand, 
 K. Raghavachari, A. P. Rendell, J. C. Burant, S. S. Iyengar, 
 J. Tomasi, M. Cossi, J. M. Millam, M. Klene, C. Adamo, R. Cammi, 
 J. W. Ochterski, R. L. Martin, K. Morokuma, O. Farkas, 
 J. B. Foresman, and D. J. Fox, Gaussian, Inc., Wallingford CT, 2016.
 
 ******************************************
 Gaussian 16:  ES64L-G16RevB.01 20-Dec-2017
                22-Nov-2022 
 ******************************************
 %nprocshared=50
 Will use up to   50 processors via shared memory.
 %mem=5GB
 %chk=Uracil6311-freq.chk
 -----------------------------------------
 #p freq cam-b3lyp/6-311+G(d,p) symm=loose
 -----------------------------------------
 1/10=4,30=1,38=1/1,3;
 2/12=2,17=4,18=3,40=1/2;
 3/5=4,6=6,7=111,11=2,25=1,30=1,71=2,74=-40,140=1/1,2,3;
 4//1;
 5/5=2,38=5,98=1/2;
 8/6=4,10=90,11=11/1;
 11/6=1,8=1,9=11,15=111,16=1/1,2,10;
 10/6=1/2;
 6/7=2,8=2,9=2,10=2,28=1/1;
 7/8=1,10=1,25=1/1,2,3,16;
 1/10=4,30=1/3;
 99//99;
 Leave Link    1 at Tue Nov 22 13:23:22 2022, MaxMem=   671088640 cpu:               1.6 elap:               0.0
 (Enter /shared/gaussian/g16.b01/AVX2/g16/l101.exe)
 ------
 Uracil
 ------
 Symbolic Z-matrix:
 Charge =  0 Multiplicity = 1
 C                    -1.22827   0.36085   0. 
 C                     0.05585  -1.70024   0. 
 C                     1.23475  -1.065     0. 
 C                     1.27019   0.39091   0. 
 N                    -0.00036   0.98616   0. 
 H                    -0.02532  -2.77927   0. 
 H                     2.17307  -1.59667   0. 
 O                     2.26597   1.0768    0. 
 O                    -2.284     0.94628   0. 
 N                    -1.13665  -1.02137   0. 
 H                    -2.01858  -1.50972   0. 
 H                    -0.02256   1.99783   0. 
 
 ITRead=  0  0  0  0  0  0  0  0  0  0  0  0
 MicOpt= -1 -1 -1 -1 -1 -1 -1 -1 -1 -1 -1 -1
 NAtoms=     12 NQM=       12 NQMF=       0 NMMI=      0 NMMIF=      0
                NMic=       0 NMicF=      0.
                    Isotopes and Nuclear Properties:
 (Nuclear quadrupole moments (NQMom) in fm**2, nuclear magnetic moments (NMagM)
  in nuclear magnetons)

  Atom         1           2           3           4           5           6           7           8           9          10
 IAtWgt=          12          12          12          12          14           1           1          16          16          14
 AtmWgt=  12.0000000  12.0000000  12.0000000  12.0000000  14.0030740   1.0078250   1.0078250  15.9949146  15.9949146  14.0030740
 NucSpn=           0           0           0           0           2           1           1           0           0           2
 AtZEff=  -0.0000000  -0.0000000  -0.0000000  -0.0000000  -0.0000000  -0.0000000  -0.0000000  -0.0000000  -0.0000000  -0.0000000
 NQMom=    0.0000000   0.0000000   0.0000000   0.0000000   2.0440000   0.0000000   0.0000000   0.0000000   0.0000000   2.0440000
 NMagM=    0.0000000   0.0000000   0.0000000   0.0000000   0.4037610   2.7928460   2.7928460   0.0000000   0.0000000   0.4037610
 AtZNuc=   6.0000000   6.0000000   6.0000000   6.0000000   7.0000000   1.0000000   1.0000000   8.0000000   8.0000000   7.0000000

  Atom        11          12
 IAtWgt=           1           1
 AtmWgt=   1.0078250   1.0078250
 NucSpn=           1           1
 AtZEff=  -0.0000000  -0.0000000
 NQMom=    0.0000000   0.0000000
 NMagM=    2.7928460   2.7928460
 AtZNuc=   1.0000000   1.0000000
 Leave Link  101 at Tue Nov 22 13:23:22 2022, MaxMem=   671088640 cpu:               4.6 elap:               0.1
 (Enter /shared/gaussian/g16.b01/AVX2/g16/l103.exe)

 GradGradGradGradGradGradGradGradGradGradGradGradGradGradGradGradGradGrad
 Berny optimization.
 Initialization pass.
 Trust Radius=3.00D-01 FncErr=1.00D-07 GrdErr=1.00D-07 EigMax=2.50D+02 EigMin=1.00D-04
 Number of steps in this run=      2 maximum allowed number of steps=      2.
 GradGradGradGradGradGradGradGradGradGradGradGradGradGradGradGradGradGrad

 Leave Link  103 at Tue Nov 22 13:23:22 2022, MaxMem=   671088640 cpu:               0.7 elap:               0.0
 (Enter /shared/gaussian/g16.b01/AVX2/g16/l202.exe)
                          Input orientation:                          
 ---------------------------------------------------------------------
 Center     Atomic      Atomic             Coordinates (Angstroms)
 Number     Number       Type             X           Y           Z
 ---------------------------------------------------------------------
      1          6           0       -1.228274    0.360852    0.000000
      2          6           0        0.055847   -1.700239    0.000000
      3          6           0        1.234753   -1.065003    0.000000
      4          6           0        1.270191    0.390911    0.000000
      5          7           0       -0.000359    0.986164    0.000000
      6          1           0       -0.025317   -2.779266    0.000000
      7          1           0        2.173067   -1.596674    0.000000
      8          8           0        2.265971    1.076801    0.000000
      9          8           0       -2.283998    0.946280    0.000000
     10          7           0       -1.136647   -1.021375    0.000000
     11          1           0       -2.018580   -1.509722    0.000000
     12          1           0       -0.022563    1.997828    0.000000
 ---------------------------------------------------------------------
                    Distance matrix (angstroms):
                    1          2          3          4          5
     1  C    0.000000
     2  C    2.428387   0.000000
     3  C    2.845973   1.339158   0.000000
     4  C    2.498646   2.418169   1.456345   0.000000
     5  N    1.377966   2.686991   2.394324   1.403076   0.000000
     6  H    3.362655   1.082075   2.127551   3.424670   3.765513
     7  H    3.924414   2.119751   1.078474   2.183044   3.375623
     8  O    3.566838   3.549169   2.377127   1.209141   2.268142
     9  O    1.207178   3.532554   4.053007   3.597318   2.283987
    10  N    1.385261   1.372187   2.371801   2.790595   2.306808
    11  H    2.030672   2.083157   3.283588   3.798476   3.209776
    12  H    2.033084   3.698898   3.310857   2.062376   1.011908
                    6          7          8          9         10
     6  H    0.000000
     7  H    2.496280   0.000000
     8  O    4.485449   2.675089   0.000000
     9  O    4.356757   5.131476   4.551841   0.000000
    10  N    2.079720   3.359342   3.997518   2.277736   0.000000
    11  H    2.363226   4.192549   5.004746   2.470302   1.008111
    12  H    4.777095   4.212035   2.466917   2.493961   3.218194
                   11         12
    11  H    0.000000
    12  H    4.035714   0.000000
 Stoichiometry    C4H4N2O2
 Framework group  CS[SG(C4H4N2O2)]
 Deg. of freedom    21
 Full point group                 CS      NOp   2
 Largest Abelian subgroup         CS      NOp   2
 Largest concise Abelian subgroup C1      NOp   1
                         Standard orientation:                         
 ---------------------------------------------------------------------
 Center     Atomic      Atomic             Coordinates (Angstroms)
 Number     Number       Type             X           Y           Z
 ---------------------------------------------------------------------
      1          6           0       -1.228126    0.361792   -0.000000
      2          6           0        0.055301   -1.699731    0.000000
      3          6           0        1.234421   -1.064892    0.000000
      4          6           0        1.270349    0.391010    0.000000
      5          7           0       -0.000000    0.986691    0.000000
      6          1           0       -0.026226   -2.778731   -0.000000
      7          1           0        2.172556   -1.596879    0.000000
      8          8           0        2.266360    1.076564    0.000000
      9          8           0       -2.283652    0.947576   -0.000000
     10          7           0       -1.136964   -1.020466   -0.000000
     11          1           0       -2.019061   -1.508516   -0.000000
     12          1           0       -0.021863    1.998362   -0.000000
 ---------------------------------------------------------------------
 Rotational constants (GHZ):           3.9115689           2.0340469           1.3381818
 Leave Link  202 at Tue Nov 22 13:23:22 2022, MaxMem=   671088640 cpu:               0.3 elap:               0.0
 (Enter /shared/gaussian/g16.b01/AVX2/g16/l301.exe)
 Standard basis: 6-311+G(d,p) (5D, 7F)
 Ernie: Thresh=  0.10000D-02 Tol=  0.10000D-05 Strict=F.
 There are   156 symmetry adapted cartesian basis functions of A'  symmetry.
 There are    52 symmetry adapted cartesian basis functions of A"  symmetry.
 There are   148 symmetry adapted basis functions of A'  symmetry.
 There are    52 symmetry adapted basis functions of A"  symmetry.
   200 basis functions,   320 primitive gaussians,   208 cartesian basis functions
    29 alpha electrons       29 beta electrons
       nuclear repulsion energy       357.7652694771 Hartrees.
 IExCor=20419 DFT=T Ex+Corr=CAM-B3LYP ExCW=0 ScaHFX=  1.000000
 ScaDFX=  1.000000  1.000000  1.000000  0.810000 ScalE2=  1.000000  1.000000
 IRadAn=      5 IRanWt=     -1 IRanGd=            0 ICorTp=0 IEmpDi=  4
 HFx  wShort=  0.000000 wLong=  0.330000 cFull=  0.190000 cShort=  0.000000 cLong=  0.460000
 DFx  wShort=  0.000000 wLong=  0.330000 cFull=  0.190000 cShort=  0.000000 cLong=  0.460000
 NAtoms=   12 NActive=   12 NUniq=   12 SFac= 1.00D+00 NAtFMM=   60 NAOKFM=F Big=F
 Integral buffers will be    131072 words long.
 Raffenetti 2 integral format.
 Two-electron integral symmetry is turned on.
 Leave Link  301 at Tue Nov 22 13:23:22 2022, MaxMem=   671088640 cpu:               1.9 elap:               0.1
 (Enter /shared/gaussian/g16.b01/AVX2/g16/l302.exe)
 NPDir=0 NMtPBC=     1 NCelOv=     1 NCel=       1 NClECP=     1 NCelD=      1
         NCelK=      1 NCelE2=     1 NClLst=     1 CellRange=     0.0.
 One-electron integrals computed using PRISM.
 One-electron integral symmetry used in STVInt
 NBasis=   200 RedAO= T EigKep=  2.40D-05  NBF=   148    52
 NBsUse=   200 1.00D-06 EigRej= -1.00D+00 NBFU=   148    52
 Precomputing XC quadrature grid using
 IXCGrd= 4 IRadAn=           5 IRanWt=          -1 IRanGd=           0 AccXCQ= 0.00D+00.
 Generated NRdTot=       0 NPtTot=           0 NUsed=           0 NTot=          32
 NSgBfM=   208   208   208   208   208 MxSgAt=    12 MxSgA2=    12.
 Leave Link  302 at Tue Nov 22 13:23:22 2022, MaxMem=   671088640 cpu:               8.8 elap:               0.2
 (Enter /shared/gaussian/g16.b01/AVX2/g16/l303.exe)
 DipDrv:  MaxL=1.
 Leave Link  303 at Tue Nov 22 13:23:22 2022, MaxMem=   671088640 cpu:               1.0 elap:               0.0
 (Enter /shared/gaussian/g16.b01/AVX2/g16/l401.exe)
 ExpMin= 4.38D-02 ExpMax= 8.59D+03 ExpMxC= 1.30D+03 IAcc=3 IRadAn=         5 AccDes= 0.00D+00
 Harris functional with IExCor=20419 and IRadAn=       5 diagonalized for initial guess.
 HarFok:  IExCor=20419 AccDes= 0.00D+00 IRadAn=         5 IDoV= 1 UseB2=F ITyADJ=14
 ICtDFT=  3500011 ScaDFX=  1.000000  1.000000  1.000000  1.000000
 FoFCou: FMM=F IPFlag=           0 FMFlag=      100000 FMFlg1=           0
         NFxFlg=           0 DoJE=T BraDBF=F KetDBF=T FulRan=T
         wScrn=  0.000000 ICntrl=       500 IOpCl=  0 I1Cent=   200000004 NGrid=           0
         NMat0=    1 NMatS0=      1 NMatT0=    0 NMatD0=    1 NMtDS0=    0 NMtDT0=    0
 Petite list used in FoFCou.
 Harris En= -400.142028921352    
 JPrj=0 DoOrth=F DoCkMO=F.
 Initial guess orbital symmetries:
       Occupied  (A') (A') (A') (A') (A') (A') (A') (A') (A') (A')
                 (A') (A') (A') (A') (A') (A') (A') (A') (A') (A')
                 (A") (A') (A') (A") (A") (A') (A") (A') (A")
       Virtual   (A') (A") (A') (A') (A") (A') (A') (A") (A') (A")
                 (A") (A') (A') (A") (A') (A') (A') (A') (A") (A')
                 (A") (A') (A') (A') (A') (A") (A') (A') (A") (A')
                 (A') (A') (A') (A') (A") (A') (A') (A') (A') (A')
                 (A') (A') (A') (A') (A') (A') (A") (A') (A') (A")
                 (A') (A") (A') (A") (A') (A') (A') (A') (A') (A')
                 (A') (A') (A') (A") (A') (A') (A") (A') (A') (A")
                 (A') (A") (A') (A") (A') (A") (A') (A') (A") (A')
                 (A') (A') (A") (A") (A") (A') (A') (A') (A') (A')
                 (A") (A') (A') (A") (A') (A") (A') (A') (A") (A')
                 (A') (A') (A') (A") (A') (A') (A') (A") (A') (A')
                 (A") (A') (A') (A") (A") (A') (A") (A') (A') (A')
                 (A') (A") (A') (A') (A") (A") (A") (A') (A') (A')
                 (A") (A') (A") (A') (A') (A') (A') (A") (A") (A')
                 (A') (A') (A') (A') (A') (A') (A') (A") (A') (A")
                 (A') (A') (A') (A') (A') (A') (A") (A") (A') (A')
                 (A') (A') (A') (A') (A') (A') (A') (A') (A') (A')
                 (A')
 The electronic state of the initial guess is 1-A'.
 Leave Link  401 at Tue Nov 22 13:23:22 2022, MaxMem=   671088640 cpu:              10.5 elap:               0.3
 (Enter /shared/gaussian/g16.b01/AVX2/g16/l502.exe)
 Keep R1 ints in memory in symmetry-blocked form, NReq=617182407.
 FoFCou: FMM=F IPFlag=           0 FMFlag=           0 FMFlg1=           0
         NFxFlg=           0 DoJE=F BraDBF=F KetDBF=F FulRan=T
         wScrn=  0.000000 ICntrl=       600 IOpCl=  0 I1Cent=           0 NGrid=           0
         NMat0=    1 NMatS0=  20100 NMatT0=    0 NMatD0=    1 NMtDS0=    0 NMtDT0=    0
 Petite list used in FoFCou.
 Closed shell SCF:
 Using DIIS extrapolation, IDIIS=  1040.
 NGot=   671088640 LenX=   564392544 LenY=   564348839
 Requested convergence on RMS density matrix=1.00D-08 within 128 cycles.
 Requested convergence on MAX density matrix=1.00D-06.
 Requested convergence on             energy=1.00D-06.
 No special actions if energy rises.

 Cycle   1  Pass 1  IDiag  1:
 E= -414.639856830947    
 DIIS: error= 6.66D-02 at cycle   1 NSaved=   1.
 NSaved= 1 IEnMin= 1 EnMin= -414.639856830947     IErMin= 1 ErrMin= 6.66D-02
 ErrMax= 6.66D-02  0.00D+00 EMaxC= 1.00D-01 BMatC= 6.95D-01 BMatP= 6.95D-01
 IDIUse=3 WtCom= 3.34D-01 WtEn= 6.66D-01
 Coeff-Com:  0.100D+01
 Coeff-En:   0.100D+01
 Coeff:      0.100D+01
 Gap=     0.311 Goal=   None    Shift=    0.000
 GapD=    0.311 DampG=1.000 DampE=0.500 DampFc=0.5000 IDamp=-1.
 Damping current iteration by 5.00D-01
 RMSDP=5.69D-03 MaxDP=4.31D-01              OVMax= 1.81D-01

 Cycle   2  Pass 1  IDiag  1:
 E= -414.697818750088     Delta-E=       -0.057961919141 Rises=F Damp=T
 DIIS: error= 3.17D-02 at cycle   2 NSaved=   2.
 NSaved= 2 IEnMin= 2 EnMin= -414.697818750088     IErMin= 2 ErrMin= 3.17D-02
 ErrMax= 3.17D-02  0.00D+00 EMaxC= 1.00D-01 BMatC= 1.43D-01 BMatP= 6.95D-01
 IDIUse=3 WtCom= 6.83D-01 WtEn= 3.17D-01
 Coeff-Com: -0.509D+00 0.151D+01
 Coeff-En:   0.000D+00 0.100D+01
 Coeff:     -0.347D+00 0.135D+01
 Gap=     0.337 Goal=   None    Shift=    0.000
 RMSDP=3.31D-03 MaxDP=3.23D-01 DE=-5.80D-02 OVMax= 1.52D-01

 Cycle   3  Pass 1  IDiag  1:
 E= -414.719417938630     Delta-E=       -0.021599188542 Rises=F Damp=F
 DIIS: error= 2.02D-02 at cycle   3 NSaved=   3.
 NSaved= 3 IEnMin= 3 EnMin= -414.719417938630     IErMin= 3 ErrMin= 2.02D-02
 ErrMax= 2.02D-02  0.00D+00 EMaxC= 1.00D-01 BMatC= 6.60D-02 BMatP= 1.43D-01
 IDIUse=3 WtCom= 7.98D-01 WtEn= 2.02D-01
 Coeff-Com: -0.358D+00 0.813D+00 0.545D+00
 Coeff-En:   0.000D+00 0.272D+00 0.728D+00
 Coeff:     -0.286D+00 0.703D+00 0.582D+00
 Gap=     0.313 Goal=   None    Shift=    0.000
 RMSDP=1.65D-03 MaxDP=6.97D-02 DE=-2.16D-02 OVMax= 8.17D-02

 Cycle   4  Pass 1  IDiag  1:
 E= -414.764308939257     Delta-E=       -0.044891000627 Rises=F Damp=F
 DIIS: error= 7.22D-03 at cycle   4 NSaved=   4.
 NSaved= 4 IEnMin= 4 EnMin= -414.764308939257     IErMin= 4 ErrMin= 7.22D-03
 ErrMax= 7.22D-03  0.00D+00 EMaxC= 1.00D-01 BMatC= 8.37D-03 BMatP= 6.60D-02
 IDIUse=3 WtCom= 9.28D-01 WtEn= 7.22D-02
 Coeff-Com: -0.144D+00 0.313D+00 0.345D+00 0.486D+00
 Coeff-En:   0.000D+00 0.000D+00 0.717D-01 0.928D+00
 Coeff:     -0.134D+00 0.290D+00 0.326D+00 0.518D+00
 Gap=     0.311 Goal=   None    Shift=    0.000
 RMSDP=8.25D-04 MaxDP=5.20D-02 DE=-4.49D-02 OVMax= 1.91D-02

 Cycle   5  Pass 1  IDiag  1:
 E= -414.769855609004     Delta-E=       -0.005546669747 Rises=F Damp=F
 DIIS: error= 1.51D-03 at cycle   5 NSaved=   5.
 NSaved= 5 IEnMin= 5 EnMin= -414.769855609004     IErMin= 5 ErrMin= 1.51D-03
 ErrMax= 1.51D-03  0.00D+00 EMaxC= 1.00D-01 BMatC= 2.64D-04 BMatP= 8.37D-03
 IDIUse=3 WtCom= 9.85D-01 WtEn= 1.51D-02
 Coeff-Com: -0.391D-01 0.833D-01 0.112D+00 0.258D+00 0.586D+00
 Coeff-En:   0.000D+00 0.000D+00 0.000D+00 0.000D+00 0.100D+01
 Coeff:     -0.385D-01 0.820D-01 0.111D+00 0.254D+00 0.592D+00
 Gap=     0.311 Goal=   None    Shift=    0.000
 RMSDP=1.01D-04 MaxDP=3.45D-03 DE=-5.55D-03 OVMax= 4.33D-03

 Cycle   6  Pass 1  IDiag  1:
 E= -414.770050686060     Delta-E=       -0.000195077056 Rises=F Damp=F
 DIIS: error= 3.94D-04 at cycle   6 NSaved=   6.
 NSaved= 6 IEnMin= 6 EnMin= -414.770050686060     IErMin= 6 ErrMin= 3.94D-04
 ErrMax= 3.94D-04  0.00D+00 EMaxC= 1.00D-01 BMatC= 1.48D-05 BMatP= 2.64D-04
 IDIUse=3 WtCom= 9.96D-01 WtEn= 3.94D-03
 Coeff-Com:  0.142D-01-0.311D-01-0.229D-01 0.752D-02 0.246D+00 0.786D+00
 Coeff-En:   0.000D+00 0.000D+00 0.000D+00 0.000D+00 0.000D+00 0.100D+01
 Coeff:      0.142D-01-0.310D-01-0.228D-01 0.749D-02 0.245D+00 0.787D+00
 Gap=     0.311 Goal=   None    Shift=    0.000
 RMSDP=8.32D-05 MaxDP=6.82D-03 DE=-1.95D-04 OVMax= 2.76D-03

 Cycle   7  Pass 1  IDiag  1:
 E= -414.770068910564     Delta-E=       -0.000018224504 Rises=F Damp=F
 DIIS: error= 1.43D-04 at cycle   7 NSaved=   7.
 NSaved= 7 IEnMin= 7 EnMin= -414.770068910564     IErMin= 7 ErrMin= 1.43D-04
 ErrMax= 1.43D-04  0.00D+00 EMaxC= 1.00D-01 BMatC= 2.51D-06 BMatP= 1.48D-05
 IDIUse=3 WtCom= 9.99D-01 WtEn= 1.43D-03
 Coeff-Com:  0.867D-02-0.187D-01-0.168D-01-0.199D-01 0.551D-01 0.347D+00
 Coeff-Com:  0.644D+00
 Coeff-En:   0.000D+00 0.000D+00 0.000D+00 0.000D+00 0.000D+00 0.000D+00
 Coeff-En:   0.100D+01
 Coeff:      0.866D-02-0.187D-01-0.168D-01-0.199D-01 0.550D-01 0.347D+00
 Coeff:      0.645D+00
 Gap=     0.311 Goal=   None    Shift=    0.000
 RMSDP=1.73D-05 MaxDP=1.09D-03 DE=-1.82D-05 OVMax= 6.26D-04

 Cycle   8  Pass 1  IDiag  1:
 E= -414.770071421588     Delta-E=       -0.000002511024 Rises=F Damp=F
 DIIS: error= 5.22D-05 at cycle   8 NSaved=   8.
 NSaved= 8 IEnMin= 8 EnMin= -414.770071421588     IErMin= 8 ErrMin= 5.22D-05
 ErrMax= 5.22D-05  0.00D+00 EMaxC= 1.00D-01 BMatC= 4.22D-07 BMatP= 2.51D-06
 IDIUse=1 WtCom= 1.00D+00 WtEn= 0.00D+00
 Coeff-Com:  0.141D-02-0.294D-02-0.361D-02-0.142D-01-0.277D-01 0.584D-02
 Coeff-Com:  0.281D+00 0.760D+00
 Coeff:      0.141D-02-0.294D-02-0.361D-02-0.142D-01-0.277D-01 0.584D-02
 Coeff:      0.281D+00 0.760D+00
 Gap=     0.311 Goal=   None    Shift=    0.000
 RMSDP=1.48D-05 MaxDP=1.07D-03 DE=-2.51D-06 OVMax= 2.80D-04

 Cycle   9  Pass 1  IDiag  1:
 E= -414.770071889917     Delta-E=       -0.000000468329 Rises=F Damp=F
 DIIS: error= 2.24D-05 at cycle   9 NSaved=   9.
 NSaved= 9 IEnMin= 9 EnMin= -414.770071889917     IErMin= 9 ErrMin= 2.24D-05
 ErrMax= 2.24D-05  0.00D+00 EMaxC= 1.00D-01 BMatC= 4.48D-08 BMatP= 4.22D-07
 IDIUse=1 WtCom= 1.00D+00 WtEn= 0.00D+00
 Coeff-Com: -0.499D-03 0.111D-02 0.727D-03-0.375D-02-0.186D-01-0.383D-01
 Coeff-Com:  0.421D-01 0.328D+00 0.689D+00
 Coeff:     -0.499D-03 0.111D-02 0.727D-03-0.375D-02-0.186D-01-0.383D-01
 Coeff:      0.421D-01 0.328D+00 0.689D+00
 Gap=     0.311 Goal=   None    Shift=    0.000
 RMSDP=2.17D-06 MaxDP=1.01D-04 DE=-4.68D-07 OVMax= 1.78D-04

 Cycle  10  Pass 1  IDiag  1:
 E= -414.770071940740     Delta-E=       -0.000000050823 Rises=F Damp=F
 DIIS: error= 7.61D-06 at cycle  10 NSaved=  10.
 NSaved=10 IEnMin=10 EnMin= -414.770071940740     IErMin=10 ErrMin= 7.61D-06
 ErrMax= 7.61D-06  0.00D+00 EMaxC= 1.00D-01 BMatC= 7.45D-09 BMatP= 4.48D-08
 IDIUse=1 WtCom= 1.00D+00 WtEn= 0.00D+00
 Coeff-Com: -0.421D-03 0.905D-03 0.919D-03 0.727D-03-0.348D-02-0.164D-01
 Coeff-Com: -0.276D-01 0.117D-01 0.319D+00 0.715D+00
 Coeff:     -0.421D-03 0.905D-03 0.919D-03 0.727D-03-0.348D-02-0.164D-01
 Coeff:     -0.276D-01 0.117D-01 0.319D+00 0.715D+00
 Gap=     0.311 Goal=   None    Shift=    0.000
 RMSDP=8.68D-07 MaxDP=2.91D-05 DE=-5.08D-08 OVMax= 3.37D-05

 Cycle  11  Pass 1  IDiag  1:
 E= -414.770071948676     Delta-E=       -0.000000007936 Rises=F Damp=F
 DIIS: error= 1.82D-06 at cycle  11 NSaved=  11.
 NSaved=11 IEnMin=11 EnMin= -414.770071948676     IErMin=11 ErrMin= 1.82D-06
 ErrMax= 1.82D-06  0.00D+00 EMaxC= 1.00D-01 BMatC= 3.97D-10 BMatP= 7.45D-09
 IDIUse=1 WtCom= 1.00D+00 WtEn= 0.00D+00
 Coeff-Com: -0.692D-04 0.147D-03 0.202D-03 0.470D-03 0.198D-03-0.218D-02
 Coeff-Com: -0.136D-01-0.224D-01 0.710D-01 0.229D+00 0.738D+00
 Coeff:     -0.692D-04 0.147D-03 0.202D-03 0.470D-03 0.198D-03-0.218D-02
 Coeff:     -0.136D-01-0.224D-01 0.710D-01 0.229D+00 0.738D+00
 Gap=     0.311 Goal=   None    Shift=    0.000
 RMSDP=2.01D-07 MaxDP=1.34D-05 DE=-7.94D-09 OVMax= 1.51D-05

 Cycle  12  Pass 1  IDiag  1:
 E= -414.770071949169     Delta-E=       -0.000000000493 Rises=F Damp=F
 DIIS: error= 7.79D-07 at cycle  12 NSaved=  12.
 NSaved=12 IEnMin=12 EnMin= -414.770071949169     IErMin=12 ErrMin= 7.79D-07
 ErrMax= 7.79D-07  0.00D+00 EMaxC= 1.00D-01 BMatC= 8.10D-11 BMatP= 3.97D-10
 IDIUse=1 WtCom= 1.00D+00 WtEn= 0.00D+00
 Coeff-Com:  0.238D-04-0.518D-04-0.235D-04 0.122D-03 0.582D-03 0.148D-02
 Coeff-Com: -0.215D-02-0.105D-01-0.155D-01-0.306D-01 0.297D+00 0.759D+00
 Coeff:      0.238D-04-0.518D-04-0.235D-04 0.122D-03 0.582D-03 0.148D-02
 Coeff:     -0.215D-02-0.105D-01-0.155D-01-0.306D-01 0.297D+00 0.759D+00
 Gap=     0.311 Goal=   None    Shift=    0.000
 RMSDP=8.86D-08 MaxDP=3.21D-06 DE=-4.93D-10 OVMax= 4.63D-06

 Cycle  13  Pass 1  IDiag  1:
 E= -414.770071949271     Delta-E=       -0.000000000102 Rises=F Damp=F
 DIIS: error= 1.85D-07 at cycle  13 NSaved=  13.
 NSaved=13 IEnMin=13 EnMin= -414.770071949271     IErMin=13 ErrMin= 1.85D-07
 ErrMax= 1.85D-07  0.00D+00 EMaxC= 1.00D-01 BMatC= 4.16D-12 BMatP= 8.10D-11
 IDIUse=1 WtCom= 1.00D+00 WtEn= 0.00D+00
 Coeff-Com:  0.818D-05-0.175D-04-0.161D-04-0.208D-04 0.687D-04 0.434D-03
 Coeff-Com:  0.707D-03 0.669D-03-0.825D-02-0.301D-01-0.120D-01 0.926D-01
 Coeff-Com:  0.956D+00
 Coeff:      0.818D-05-0.175D-04-0.161D-04-0.208D-04 0.687D-04 0.434D-03
 Coeff:      0.707D-03 0.669D-03-0.825D-02-0.301D-01-0.120D-01 0.926D-01
 Coeff:      0.956D+00
 Gap=     0.311 Goal=   None    Shift=    0.000
 RMSDP=2.23D-08 MaxDP=5.32D-07 DE=-1.02D-10 OVMax= 1.83D-06

 Cycle  14  Pass 1  IDiag  1:
 E= -414.770071949279     Delta-E=       -0.000000000008 Rises=F Damp=F
 DIIS: error= 9.83D-08 at cycle  14 NSaved=  14.
 NSaved=14 IEnMin=14 EnMin= -414.770071949279     IErMin=14 ErrMin= 9.83D-08
 ErrMax= 9.83D-08  0.00D+00 EMaxC= 1.00D-01 BMatC= 9.84D-13 BMatP= 4.16D-12
 IDIUse=1 WtCom= 1.00D+00 WtEn= 0.00D+00
 Coeff-Com:  0.245D-05-0.510D-05-0.745D-05-0.262D-04-0.400D-04 0.459D-04
 Coeff-Com:  0.538D-03 0.148D-02-0.175D-02-0.100D-01-0.321D-01-0.431D-01
 Coeff-Com:  0.414D+00 0.671D+00
 Coeff:      0.245D-05-0.510D-05-0.745D-05-0.262D-04-0.400D-04 0.459D-04
 Coeff:      0.538D-03 0.148D-02-0.175D-02-0.100D-01-0.321D-01-0.431D-01
 Coeff:      0.414D+00 0.671D+00
 Gap=     0.311 Goal=   None    Shift=    0.000
 RMSDP=8.40D-09 MaxDP=4.80D-07 DE=-8.19D-12 OVMax= 6.64D-07

 SCF Done:  E(RCAM-B3LYP) =  -414.770071949     A.U. after   14 cycles
            NFock= 14  Conv=0.84D-08     -V/T= 2.0029
 KE= 4.135610240307D+02 PE=-1.686277892391D+03 EE= 5.001815269335D+02
 Leave Link  502 at Tue Nov 22 13:23:26 2022, MaxMem=   671088640 cpu:             116.8 elap:               3.5
 (Enter /shared/gaussian/g16.b01/AVX2/g16/l801.exe)
 DoSCS=F DFT=T ScalE2(SS,OS)=  1.000000  1.000000
 Range of M.O.s used for correlation:     1   200
 NBasis=   200 NAE=    29 NBE=    29 NFC=     0 NFV=     0
 NROrb=    200 NOA=    29 NOB=    29 NVA=   171 NVB=   171

 **** Warning!!: The largest alpha MO coefficient is  0.84857462D+02

 Leave Link  801 at Tue Nov 22 13:23:26 2022, MaxMem=   671088640 cpu:               0.7 elap:               0.0
 (Enter /shared/gaussian/g16.b01/AVX2/g16/l1101.exe)
 Using compressed storage, NAtomX=    12.
 Will process     13 centers per pass.
 Leave Link 1101 at Tue Nov 22 13:23:26 2022, MaxMem=   671088640 cpu:               8.4 elap:               0.2
 (Enter /shared/gaussian/g16.b01/AVX2/g16/l1102.exe)
 Symmetrizing basis deriv contribution to polar:
 IMax=3 JMax=2 DiffMx= 0.00D+00
 Leave Link 1102 at Tue Nov 22 13:23:26 2022, MaxMem=   671088640 cpu:               0.9 elap:               0.0
 (Enter /shared/gaussian/g16.b01/AVX2/g16/l1110.exe)
 Forming Gx(P) for the SCF density, NAtomX=    12.
 Integral derivatives from FoFJK, PRISM(SPDF).
 Do as many integral derivatives as possible in FoFJK.
 G2DrvN: MDV=     671087568.
 G2DrvN: will do    13 centers at a time, making    1 passes.
 Calling FoFCou, ICntrl=  3107 FMM=F I1Cent=   0 AccDes= 0.00D+00.
 FoFJK:  IHMeth= 1 ICntrl=    3107 DoSepK=T KAlg= 0 I1Cent=           0 FoldK=F
 IRaf=         1 NMat=       1 IRICut=       1 DoRegI=T DoRafI=F ISym2E= 1 IDoP0=0 IntGTp=1.
 FoFCou: FMM=F IPFlag=           0 FMFlag=      100000 FMFlg1=           0
         NFxFlg=           0 DoJE=F BraDBF=F KetDBF=F FulRan=T
         wScrn=  0.000000 ICntrl=      3507 IOpCl=  0 I1Cent=           0 NGrid=           0
         NMat0=    1 NMatS0=      1 NMatT0=    0 NMatD0=    1 NMtDS0=    0 NMtDT0=    0
 Petite list used in FoFCou.
 End of G2Drv F.D. properties file   721 does not exist.
 End of G2Drv F.D. properties file   722 does not exist.
 End of G2Drv F.D. properties file   788 does not exist.
 Leave Link 1110 at Tue Nov 22 13:23:28 2022, MaxMem=   671088640 cpu:             108.6 elap:               2.2
 (Enter /shared/gaussian/g16.b01/AVX2/g16/l1002.exe)
 Minotr:  Closed shell wavefunction.
          IDoAtm=111111111111
          Direct CPHF calculation.
          Differentiating once with respect to electric field.
                with respect to dipole field.
          Differentiating once with respect to nuclear coordinates.
          Using symmetry in CPHF.
          Requested convergence is 1.0D-08 RMS, and 1.0D-07 maximum.
          Secondary convergence is 1.0D-12 RMS, and 1.0D-12 maximum.
          NewPWx=T KeepS1=F KeepF1=F KeepIn=T MapXYZ=F SortEE=F KeepMc=T.
         3675 words used for storage of precomputed grid.
 Keep R1 ints in memory in symmetry-blocked form, NReq=617187906.
 FoFCou: FMM=F IPFlag=           0 FMFlag=           0 FMFlg1=           0
         NFxFlg=           0 DoJE=F BraDBF=F KetDBF=F FulRan=T
         wScrn=  0.000000 ICntrl=       600 IOpCl=  0 I1Cent=           0 NGrid=           0
         NMat0=    1 NMatS0=  20100 NMatT0=    0 NMatD0=    1 NMtDS0=    0 NMtDT0=    0
 Petite list used in FoFCou.
          MDV=     671088640 using IRadAn=       1.
          Solving linear equations simultaneously, MaxMat=       0.
          There are    39 degrees of freedom in the 1st order CPHF.  IDoFFX=6 NUNeed=     3.
     36 vectors produced by pass  0 Test12= 1.27D-14 2.56D-09 XBig12= 5.70D+01 4.77D+00.
 AX will form    36 AO Fock derivatives at one time.
     36 vectors produced by pass  1 Test12= 1.27D-14 2.56D-09 XBig12= 9.59D+00 5.86D-01.
     36 vectors produced by pass  2 Test12= 1.27D-14 2.56D-09 XBig12= 1.70D-01 8.28D-02.
     36 vectors produced by pass  3 Test12= 1.27D-14 2.56D-09 XBig12= 1.78D-03 7.80D-03.
     36 vectors produced by pass  4 Test12= 1.27D-14 2.56D-09 XBig12= 1.18D-05 4.51D-04.
     36 vectors produced by pass  5 Test12= 1.27D-14 2.56D-09 XBig12= 5.72D-08 3.10D-05.
     32 vectors produced by pass  6 Test12= 1.27D-14 2.56D-09 XBig12= 2.57D-10 2.54D-06.
     13 vectors produced by pass  7 Test12= 1.27D-14 2.56D-09 XBig12= 1.21D-12 1.91D-07.
      3 vectors produced by pass  8 Test12= 1.27D-14 2.56D-09 XBig12= 6.00D-15 1.73D-08.
 InvSVY:  IOpt=1 It=  1 EMax= 4.44D-15
 Solved reduced A of dimension   264 with    39 vectors.
 FullF1:  Do perturbations      1 to       3.
 Isotropic polarizability for W=    0.000000       64.77 Bohr**3.
 End of Minotr F.D. properties file   721 does not exist.
 End of Minotr F.D. properties file   722 does not exist.
 End of Minotr F.D. properties file   788 does not exist.
 Leave Link 1002 at Tue Nov 22 13:23:34 2022, MaxMem=   671088640 cpu:             293.2 elap:               5.9
 (Enter /shared/gaussian/g16.b01/AVX2/g16/l601.exe)
 Copying SCF densities to generalized density rwf, IOpCl= 0 IROHF=0.

 **********************************************************************

            Population analysis using the SCF Density.

 **********************************************************************

 Orbital symmetries:
       Occupied  (A') (A') (A') (A') (A') (A') (A') (A') (A') (A')
                 (A') (A') (A') (A') (A') (A') (A') (A') (A") (A')
                 (A') (A') (A') (A") (A") (A') (A") (A') (A")
       Virtual   (A") (A') (A') (A") (A') (A") (A') (A') (A') (A")
                 (A") (A') (A') (A") (A') (A') (A') (A') (A") (A')
                 (A") (A') (A') (A') (A') (A") (A') (A') (A') (A')
                 (A') (A") (A') (A') (A') (A') (A") (A') (A') (A')
                 (A') (A') (A') (A') (A') (A') (A') (A") (A') (A")
                 (A') (A") (A') (A") (A') (A') (A') (A') (A') (A')
                 (A') (A') (A') (A") (A') (A") (A') (A') (A') (A')
                 (A") (A") (A') (A') (A") (A") (A') (A") (A') (A")
                 (A') (A') (A") (A') (A") (A') (A') (A') (A') (A')
                 (A") (A') (A") (A') (A") (A') (A') (A') (A") (A')
                 (A') (A') (A') (A') (A") (A') (A') (A') (A") (A')
                 (A") (A') (A") (A') (A") (A') (A") (A') (A') (A')
                 (A') (A") (A') (A') (A") (A") (A') (A') (A") (A')
                 (A') (A") (A') (A") (A') (A') (A') (A") (A") (A')
                 (A') (A') (A') (A') (A') (A') (A') (A") (A') (A")
                 (A') (A') (A') (A') (A') (A') (A") (A") (A') (A')
                 (A') (A') (A') (A') (A') (A') (A') (A') (A') (A')
                 (A')
 The electronic state is 1-A'.
 Alpha  occ. eigenvalues --  -19.19043 -19.18498 -14.46871 -14.45137 -10.41485
 Alpha  occ. eigenvalues --  -10.38058 -10.34157 -10.27386  -1.18339  -1.14825
 Alpha  occ. eigenvalues --   -1.08180  -1.02634  -0.89851  -0.78502  -0.75623
 Alpha  occ. eigenvalues --   -0.68760  -0.65063  -0.60693  -0.57377  -0.55833
 Alpha  occ. eigenvalues --   -0.53737  -0.50808  -0.50252  -0.49392  -0.45272
 Alpha  occ. eigenvalues --   -0.38102  -0.36552  -0.34867  -0.32450
 Alpha virt. eigenvalues --   -0.01305   0.00608   0.03659   0.04035   0.04196
 Alpha virt. eigenvalues --    0.05992   0.06585   0.07896   0.08357   0.09748
 Alpha virt. eigenvalues --    0.11110   0.11224   0.11836   0.14079   0.14519
 Alpha virt. eigenvalues --    0.15286   0.15730   0.16822   0.17132   0.18128
 Alpha virt. eigenvalues --    0.19404   0.20682   0.21326   0.22342   0.23132
 Alpha virt. eigenvalues --    0.23993   0.25361   0.26023   0.27819   0.28565
 Alpha virt. eigenvalues --    0.29125   0.29180   0.29913   0.31722   0.33961
 Alpha virt. eigenvalues --    0.34351   0.34421   0.35228   0.35444   0.36806
 Alpha virt. eigenvalues --    0.39690   0.40895   0.42784   0.46075   0.50289
 Alpha virt. eigenvalues --    0.52256   0.56311   0.57192   0.58007   0.60643
 Alpha virt. eigenvalues --    0.62639   0.62664   0.65421   0.65585   0.68640
 Alpha virt. eigenvalues --    0.70678   0.74017   0.75944   0.77046   0.79612
 Alpha virt. eigenvalues --    0.81849   0.82351   0.85246   0.85457   0.89588
 Alpha virt. eigenvalues --    0.89650   0.89934   0.93931   0.98602   1.04746
 Alpha virt. eigenvalues --    1.06004   1.07573   1.09347   1.13807   1.16053
 Alpha virt. eigenvalues --    1.19074   1.20209   1.20428   1.22140   1.23539
 Alpha virt. eigenvalues --    1.24036   1.25066   1.28558   1.29619   1.33443
 Alpha virt. eigenvalues --    1.35260   1.38359   1.53655   1.56285   1.60073
 Alpha virt. eigenvalues --    1.61931   1.67195   1.69360   1.69903   1.72479
 Alpha virt. eigenvalues --    1.73484   1.77094   1.79766   1.80749   1.84633
 Alpha virt. eigenvalues --    1.87336   1.90347   1.96301   1.98495   1.99019
 Alpha virt. eigenvalues --    2.03477   2.06953   2.11041   2.11972   2.26783
 Alpha virt. eigenvalues --    2.28351   2.31350   2.38503   2.39910   2.45637
 Alpha virt. eigenvalues --    2.48904   2.54960   2.56826   2.64349   2.67929
 Alpha virt. eigenvalues --    2.72287   2.75014   2.76017   2.78855   2.82943
 Alpha virt. eigenvalues --    2.86152   2.90888   2.92856   2.94884   2.97870
 Alpha virt. eigenvalues --    2.98613   2.99627   3.00977   3.02625   3.08714
 Alpha virt. eigenvalues --    3.19299   3.21202   3.42949   3.44058   3.45103
 Alpha virt. eigenvalues --    3.48279   3.53490   3.57016   3.62447   3.68191
 Alpha virt. eigenvalues --    3.71832   3.75912   3.87977   3.92162   3.92695
 Alpha virt. eigenvalues --    4.05677   4.12354   4.25907   4.76638   4.86980
 Alpha virt. eigenvalues --    4.92692   5.10079   5.12829   5.21073   5.25830
 Alpha virt. eigenvalues --    5.41316   5.82535   5.86469  23.74627  23.89603
 Alpha virt. eigenvalues --   23.95131  24.25557  35.61511  35.67066  50.04735
 Alpha virt. eigenvalues --   50.09641
          Condensed to atoms (all electrons):
               1          2          3          4          5          6
     1  C    4.921118  -0.216623   0.178986  -0.135384   0.178514   0.008552
     2  C   -0.216623   5.910596  -0.269676  -0.118364   0.297319   0.397449
     3  C    0.178986  -0.269676   6.129434   0.080504  -0.363812   0.004881
     4  C   -0.135384  -0.118364   0.080504   5.378933   0.104714   0.001220
     5  N    0.178514   0.297319  -0.363812   0.104714   7.297689  -0.003432
     6  H    0.008552   0.397449   0.004881   0.001220  -0.003432   0.495228
     7  H   -0.006054  -0.034980   0.400176   0.002773   0.010634  -0.006193
     8  O    0.023929   0.025999  -0.140672   0.406088  -0.098005  -0.000306
     9  O    0.407705   0.043847  -0.022702   0.027703  -0.101397  -0.000202
    10  N    0.271244   0.037554  -0.019351   0.099212  -0.228235  -0.053921
    11  H   -0.018893  -0.018581   0.005172  -0.007552   0.010144  -0.003586
    12  H   -0.019789  -0.012936   0.013589  -0.009501   0.334544   0.000075
               7          8          9         10         11         12
     1  C   -0.006054   0.023929   0.407705   0.271244  -0.018893  -0.019789
     2  C   -0.034980   0.025999   0.043847   0.037554  -0.018581  -0.012936
     3  C    0.400176  -0.140672  -0.022702  -0.019351   0.005172   0.013589
     4  C    0.002773   0.406088   0.027703   0.099212  -0.007552  -0.009501
     5  N    0.010634  -0.098005  -0.101397  -0.228235   0.010144   0.334544
     6  H   -0.006193  -0.000306  -0.000202  -0.053921  -0.003586   0.000075
     7  H    0.470785  -0.009118   0.000145   0.009297  -0.000053  -0.000135
     8  O   -0.009118   8.124032   0.001089  -0.001306  -0.000006   0.008031
     9  O    0.000145   0.001089   8.119126  -0.126431   0.011194   0.007925
    10  N    0.009297  -0.001306  -0.126431   7.036026   0.350106   0.012797
    11  H   -0.000053  -0.000006   0.011194   0.350106   0.341283  -0.000059
    12  H   -0.000135   0.008031   0.007925   0.012797  -0.000059   0.324035
 Mulliken charges:
               1
     1  C    0.406694
     2  C   -0.041604
     3  C    0.003469
     4  C    0.169654
     5  N   -0.438679
     6  H    0.160236
     7  H    0.162723
     8  O   -0.339754
     9  O   -0.368000
    10  N   -0.386992
    11  H    0.330830
    12  H    0.341423
 Sum of Mulliken charges =  -0.00000
 Mulliken charges with hydrogens summed into heavy atoms:
               1
     1  C    0.406694
     2  C    0.118632
     3  C    0.166192
     4  C    0.169654
     5  N   -0.097256
     8  O   -0.339754
     9  O   -0.368000
    10  N   -0.056161
 APT charges:
               1
     1  C    1.376008
     2  C    0.531459
     3  C   -0.454577
     4  C    1.242816
     5  N   -0.786518
     6  H    0.070981
     7  H    0.089496
     8  O   -0.880195
     9  O   -0.915435
    10  N   -0.767512
    11  H    0.260074
    12  H    0.233403
 Sum of APT charges =  -0.00000
 APT charges with hydrogens summed into heavy atoms:
               1
     1  C    1.376008
     2  C    0.602440
     3  C   -0.365080
     4  C    1.242816
     5  N   -0.553116
     8  O   -0.880195
     9  O   -0.915435
    10  N   -0.507438
 Electronic spatial extent (au):  <R**2>=            826.9750
 Charge=             -0.0000 electrons
 Dipole moment (field-independent basis, Debye):
    X=             -1.1346    Y=             -4.4796    Z=             -0.0000  Tot=              4.6210
 Quadrupole moment (field-independent basis, Debye-Ang):
   XX=            -59.1942   YY=            -38.5447   ZZ=            -46.7590
   XY=              1.6679   XZ=             -0.0000   YZ=              0.0000
 Traceless Quadrupole moment (field-independent basis, Debye-Ang):
   XX=            -11.0282   YY=              9.6212   ZZ=              1.4070
   XY=              1.6679   XZ=             -0.0000   YZ=              0.0000
 Octapole moment (field-independent basis, Debye-Ang**2):
  XXX=             -7.3054  YYY=             -7.8499  ZZZ=             -0.0000  XYY=             -6.7088
  XXY=            -32.5202  XXZ=             -0.0000  XZZ=             -1.7690  YZZ=              4.1537
  YYZ=             -0.0000  XYZ=             -0.0000
 Hexadecapole moment (field-independent basis, Debye-Ang**3):
 XXXX=           -721.1625 YYYY=           -313.2952 ZZZZ=            -47.2316 XXXY=              6.0657
 XXXZ=             -0.0000 YYYX=              5.1385 YYYZ=              0.0000 ZZZX=             -0.0000
 ZZZY=              0.0000 XXYY=           -175.6241 XXZZ=           -113.4547 YYZZ=            -75.8148
 XXYZ=              0.0000 YYXZ=             -0.0000 ZZXY=              1.4597
 N-N= 3.577652694771D+02 E-N=-1.686277887127D+03  KE= 4.135610240307D+02
 Symmetry A'   KE= 3.969573313307D+02
 Symmetry A"   KE= 1.660369270001D+01
  Exact polarizability:  88.725   3.534  68.961   0.000  -0.000  36.619
 Approx polarizability: 107.280   7.931  79.489   0.000  -0.000  45.255
 No NMR shielding tensors so no spin-rotation constants.
 Leave Link  601 at Tue Nov 22 13:23:35 2022, MaxMem=   671088640 cpu:               7.3 elap:               0.2
 (Enter /shared/gaussian/g16.b01/AVX2/g16/l701.exe)
 ... and contract with generalized density number  0.
 Compute integral second derivatives.
 Leave Link  701 at Tue Nov 22 13:23:35 2022, MaxMem=   671088640 cpu:               7.6 elap:               0.2
 (Enter /shared/gaussian/g16.b01/AVX2/g16/l702.exe)
 L702 exits ... SP integral derivatives will be done elsewhere.
 Leave Link  702 at Tue Nov 22 13:23:35 2022, MaxMem=   671088640 cpu:               0.6 elap:               0.0
 (Enter /shared/gaussian/g16.b01/AVX2/g16/l703.exe)
 Integral derivatives from FoFJK, PRISM(SPDF).
 Compute integral second derivatives, UseDBF=F ICtDFT=           0.
 Calling FoFJK, ICntrl=    100127 FMM=F ISym2X=1 I1Cent= 0 IOpClX= 0 NMat=1 NMatS=1 NMatT=0.
 FoFJK:  IHMeth= 1 ICntrl=  100127 DoSepK=T KAlg= 0 I1Cent=           0 FoldK=F
 IRaf=         1 NMat=       1 IRICut=       1 DoRegI=T DoRafI=F ISym2E= 1 IDoP0=0 IntGTp=1.
 FoFCou: FMM=F IPFlag=           0 FMFlag=      100000 FMFlg1=         800
         NFxFlg=           0 DoJE=F BraDBF=F KetDBF=F FulRan=T
         wScrn=  0.000000 ICntrl=    100527 IOpCl=  0 I1Cent=           0 NGrid=           0
         NMat0=    1 NMatS0=      1 NMatT0=    0 NMatD0=    1 NMtDS0=    0 NMtDT0=    0
 Petite list used in FoFCou.
 Leave Link  703 at Tue Nov 22 13:23:42 2022, MaxMem=   671088640 cpu:             344.3 elap:               6.9
 (Enter /shared/gaussian/g16.b01/AVX2/g16/l716.exe)
 Dipole        =-4.46384671D-01-1.76239812D+00-1.11393271D-32
 Polarizability= 8.87250335D+01 3.53434010D+00 6.89610796D+01
                 2.33359227D-30-7.30572466D-32 3.66185128D+01
 Full mass-weighted force constant matrix:
 Low frequencies ---   -5.7673   -4.4106   -0.0007   -0.0005   -0.0005    0.7693
 Low frequencies ---  145.7318  163.8022  395.1831
 Diagonal vibrational polarizability:
       16.8473423      10.7582494      20.8695383
 Harmonic frequencies (cm**-1), IR intensities (KM/Mole), Raman scattering
 activities (A**4/AMU), depolarization ratios for plane and unpolarized
 incident light, reduced masses (AMU), force constants (mDyne/A),
 and normal coordinates:
                      1                      2                      3
                     A"                     A"                     A'
 Frequencies --    145.7316               163.8021               395.1831
 Red. masses --      9.3700                 6.0192                11.9970
 Frc consts  --      0.1172                 0.0952                 1.1039
 IR Inten    --      1.1365                 0.1994                23.2206
  Atom  AN      X      Y      Z        X      Y      Z        X      Y      Z
     1   6     0.00   0.00   0.07     0.00   0.00   0.03     0.04  -0.12   0.00
     2   6    -0.00   0.00  -0.02    -0.00   0.00  -0.04    -0.01  -0.10  -0.00
     3   6    -0.00  -0.00   0.06    -0.00  -0.00  -0.36     0.06  -0.14   0.00
     4   6     0.00   0.00   0.07     0.00   0.00  -0.03     0.00  -0.09   0.00
     5   7     0.00   0.00   0.61     0.00   0.00   0.02     0.03  -0.33   0.00
     6   1     0.00  -0.00  -0.14     0.00  -0.00  -0.10     0.02  -0.10  -0.00
     7   1    -0.00  -0.00  -0.05    -0.00  -0.00  -0.67    -0.00  -0.24  -0.00
     8   8     0.00   0.00  -0.35     0.00   0.00   0.18    -0.34   0.41  -0.00
     9   8    -0.00  -0.00  -0.31    -0.00  -0.00  -0.23     0.34   0.41  -0.00
    10   7     0.00   0.00   0.01     0.00   0.00   0.42    -0.10  -0.16   0.00
    11   1     0.00   0.00  -0.36     0.00   0.00   0.38    -0.06  -0.22  -0.00
    12   1     0.00   0.00   0.48    -0.00   0.00  -0.02     0.03  -0.33   0.00
                      4                      5                      6
                     A"                     A'                     A'
 Frequencies --    398.9707               526.5897               550.8511
 Red. masses --      2.9313                 7.8388                 6.3679
 Frc consts  --      0.2749                 1.2807                 1.1385
 IR Inten    --     27.1694                20.9263                 7.0568
  Atom  AN      X      Y      Z        X      Y      Z        X      Y      Z
     1   6     0.00  -0.00  -0.05     0.00  -0.24  -0.00    -0.10   0.08   0.00
     2   6    -0.00  -0.00   0.25    -0.16   0.07  -0.00    -0.12   0.18   0.00
     3   6    -0.00  -0.00  -0.20    -0.22   0.24   0.00     0.11  -0.14  -0.00
     4   6    -0.00   0.00  -0.13     0.16   0.24   0.00     0.31  -0.12  -0.00
     5   7     0.00  -0.00   0.10     0.03  -0.06   0.00     0.11  -0.20  -0.00
     6   1     0.00  -0.00   0.78     0.16   0.04  -0.00    -0.25   0.19   0.00
     7   1    -0.00  -0.00  -0.00    -0.31   0.09  -0.00    -0.11  -0.55   0.00
     8   8    -0.00   0.00   0.07     0.32   0.07  -0.00     0.09   0.23   0.00
     9   8     0.00   0.00   0.01     0.14  -0.03  -0.00    -0.24  -0.13   0.00
    10   7    -0.00  -0.00  -0.17    -0.30  -0.23  -0.00    -0.11   0.13   0.00
    11   1    -0.00  -0.00   0.29    -0.31  -0.21   0.00    -0.08   0.09  -0.00
    12   1    -0.00  -0.00   0.38    -0.42  -0.07  -0.00     0.33  -0.20   0.00
                      7                      8                      9
                     A"                     A'                     A"
 Frequencies --    562.7552               567.9647               673.5899
 Red. masses --      1.1369                 6.5874                 1.1464
 Frc consts  --      0.2121                 1.2520                 0.3065
 IR Inten    --     44.9674                 4.2642                90.1142
  Atom  AN      X      Y      Z        X      Y      Z        X      Y      Z
     1   6    -0.00   0.00  -0.02    -0.30  -0.04   0.00    -0.00  -0.00  -0.05
     2   6     0.00   0.00  -0.03     0.22   0.15   0.00     0.00   0.00  -0.04
     3   6     0.00  -0.00   0.02     0.23   0.09  -0.00     0.00   0.00   0.06
     4   6     0.00  -0.00   0.07     0.02  -0.02  -0.00     0.00  -0.00  -0.02
     5   7    -0.00  -0.00   0.03    -0.15  -0.18  -0.00    -0.00  -0.00  -0.06
     6   1     0.00   0.00  -0.12     0.33   0.14   0.00     0.00   0.00  -0.10
     7   1     0.00  -0.00  -0.13     0.27   0.16   0.00     0.00   0.00   0.02
     8   8     0.00  -0.00  -0.02     0.13  -0.18   0.00     0.00  -0.00  -0.01
     9   8    -0.00   0.00  -0.01    -0.15   0.29   0.00    -0.00   0.00  -0.00
    10   7    -0.00   0.00  -0.06    -0.02  -0.08   0.00    -0.00  -0.00   0.04
    11   1     0.00  -0.00   0.95     0.20  -0.46  -0.00     0.00  -0.00   0.23
    12   1     0.00  -0.00  -0.22    -0.21  -0.18   0.00    -0.00  -0.00   0.96
                     10                     11                     12
                     A"                     A"                     A'
 Frequencies --    735.9935               775.5791               781.8606
 Red. masses --      2.1101                 9.8520                 8.4235
 Frc consts  --      0.6734                 3.4916                 3.0339
 IR Inten    --      8.4165                56.5856                 3.8096
  Atom  AN      X      Y      Z        X      Y      Z        X      Y      Z
     1   6    -0.00   0.00   0.10    -0.00  -0.00   0.76     0.16  -0.10   0.00
     2   6    -0.00   0.00  -0.15     0.00   0.00   0.09    -0.03   0.50   0.00
     3   6     0.00  -0.00   0.05     0.00   0.00  -0.07     0.03   0.24  -0.00
     4   6     0.00  -0.00  -0.23     0.00  -0.00   0.11    -0.15  -0.13  -0.00
     5   7    -0.00  -0.00   0.05    -0.00  -0.00  -0.25     0.04  -0.24   0.00
     6   1    -0.00   0.00   0.21     0.00   0.00  -0.08     0.07   0.52   0.00
     7   1     0.00  -0.00   0.88    -0.00  -0.00  -0.15    -0.03   0.18   0.00
     8   8     0.00   0.00   0.06    -0.00  -0.00  -0.03    -0.20  -0.18  -0.00
     9   8    -0.00   0.00  -0.03    -0.00   0.00  -0.23     0.19  -0.17  -0.00
    10   7    -0.00   0.00   0.03     0.00  -0.00  -0.23    -0.05   0.15   0.00
    11   1    -0.00   0.00   0.27     0.00  -0.00   0.06    -0.02   0.12  -0.00
    12   1     0.00  -0.00  -0.12    -0.00  -0.00   0.45     0.10  -0.25  -0.00
                     13                     14                     15
                     A"                     A'                     A"
 Frequencies --    825.8207               982.1410               995.0062
 Red. masses --      2.2388                 2.5304                 1.2838
 Frc consts  --      0.8996                 1.4381                 0.7489
 IR Inten    --     63.5989                10.1776                 0.3966
  Atom  AN      X      Y      Z        X      Y      Z        X      Y      Z
     1   6    -0.00   0.00  -0.04    -0.01   0.11  -0.00    -0.00   0.00   0.02
     2   6     0.00   0.00  -0.07     0.04  -0.05   0.00     0.00  -0.00  -0.13
     3   6    -0.00   0.00  -0.17    -0.09   0.16  -0.00    -0.00   0.00   0.08
     4   6     0.00  -0.00   0.26    -0.00  -0.08  -0.00     0.00  -0.00   0.02
     5   7    -0.00  -0.00  -0.04     0.20  -0.02   0.00     0.00  -0.00  -0.01
     6   1     0.00   0.00   0.46     0.42  -0.09  -0.00     0.00  -0.00   0.86
     7   1    -0.00  -0.00   0.82     0.01   0.35   0.00    -0.00   0.00  -0.49
     8   8     0.00  -0.00  -0.07    -0.06  -0.01  -0.00    -0.00  -0.00  -0.00
     9   8    -0.00   0.00   0.01    -0.09   0.01  -0.00    -0.00   0.00  -0.00
    10   7     0.00   0.00   0.04    -0.05  -0.12  -0.00     0.00   0.00   0.01
    11   1     0.00  -0.00   0.02    -0.04  -0.14   0.00     0.00  -0.00  -0.04
    12   1    -0.00  -0.00   0.08     0.74  -0.01  -0.00     0.00  -0.00   0.00
                     16                     17                     18
                     A'                     A'                     A'
 Frequencies --   1002.0680              1100.6623              1215.8164
 Red. masses --      5.7622                 1.8506                 1.5390
 Frc consts  --      3.4090                 1.3209                 1.3404
 IR Inten    --      7.2016                 7.8013               123.8148
  Atom  AN      X      Y      Z        X      Y      Z        X      Y      Z
     1   6     0.03   0.02   0.00     0.01  -0.02   0.00     0.07   0.09  -0.00
     2   6     0.03   0.19  -0.00     0.03  -0.10  -0.00     0.04  -0.05   0.00
     3   6     0.26  -0.16   0.00     0.13  -0.02  -0.00     0.00   0.04   0.00
     4   6     0.01  -0.07   0.00    -0.05   0.06   0.00     0.08  -0.08  -0.00
     5   7     0.02   0.33   0.00     0.04  -0.04   0.00    -0.11  -0.03  -0.00
     6   1     0.27   0.17   0.00    -0.21  -0.09   0.00     0.71  -0.10  -0.00
     7   1     0.12  -0.43  -0.00     0.50   0.60  -0.00    -0.10  -0.13   0.00
     8   8    -0.08  -0.03  -0.00     0.02  -0.00  -0.00    -0.01  -0.00   0.00
     9   8     0.05  -0.03  -0.00     0.00  -0.03  -0.00    -0.00  -0.01   0.00
    10   7    -0.28  -0.22   0.00    -0.16   0.08   0.00    -0.04   0.01  -0.00
    11   1    -0.22  -0.36  -0.00    -0.34   0.38  -0.00    -0.30   0.46   0.00
    12   1     0.12   0.35  -0.00     0.02  -0.05   0.00    -0.33  -0.03  -0.00
                     19                     20                     21
                     A'                     A'                     A'
 Frequencies --   1242.6576              1404.1961              1430.3562
 Red. masses --      1.9392                 1.7959                 2.2286
 Frc consts  --      1.7643                 2.0864                 2.6864
 IR Inten    --      0.4104                27.8538                71.0851
  Atom  AN      X      Y      Z        X      Y      Z        X      Y      Z
     1   6     0.06   0.10   0.00     0.04   0.09   0.00    -0.12  -0.19   0.00
     2   6    -0.11   0.02   0.00     0.01  -0.03   0.00    -0.02   0.03  -0.00
     3   6    -0.00   0.04  -0.00     0.09   0.11  -0.00    -0.05  -0.02  -0.00
     4   6     0.12  -0.15   0.00    -0.03   0.03   0.00     0.06  -0.12   0.00
     5   7    -0.09   0.02   0.00    -0.13  -0.04   0.00    -0.12   0.09   0.00
     6   1    -0.37   0.04  -0.00    -0.58   0.00   0.00     0.25   0.02   0.00
     7   1     0.36   0.69  -0.00    -0.18  -0.35  -0.00     0.12   0.28   0.00
     8   8    -0.00   0.02  -0.00     0.03  -0.01  -0.00     0.03   0.04  -0.00
     9   8     0.01  -0.00  -0.00     0.02  -0.01  -0.00     0.06   0.01  -0.00
    10   7     0.03  -0.08   0.00     0.01  -0.10   0.00     0.05   0.05   0.00
    11   1     0.14  -0.27  -0.00    -0.20   0.26  -0.00    -0.13   0.36  -0.00
    12   1    -0.29   0.02   0.00     0.58  -0.03   0.00     0.76   0.11  -0.00
                     22                     23                     24
                     A'                     A'                     A'
 Frequencies --   1436.8025              1523.6033              1710.1237
 Red. masses --      2.2757                 2.8876                 5.7818
 Frc consts  --      2.7680                 3.9494                 9.9626
 IR Inten    --     60.4126               122.9498                77.6118
  Atom  AN      X      Y      Z        X      Y      Z        X      Y      Z
     1   6     0.04   0.14  -0.00     0.05  -0.01  -0.00     0.05   0.10   0.00
     2   6    -0.08   0.03   0.00    -0.14   0.14  -0.00     0.45   0.16   0.00
     3   6    -0.01  -0.14   0.00     0.01  -0.12   0.00    -0.33  -0.21  -0.00
     4   6    -0.11   0.11  -0.00    -0.08   0.09  -0.00    -0.05  -0.07   0.00
     5   7    -0.11  -0.08  -0.00     0.07  -0.03  -0.00    -0.04  -0.02   0.00
     6   1     0.57  -0.02  -0.00     0.17   0.14  -0.00    -0.54   0.29  -0.00
     7   1     0.18   0.18   0.00     0.19   0.19   0.00    -0.11   0.29   0.00
     8   8     0.08   0.03   0.00     0.02   0.00   0.00     0.08   0.07  -0.00
     9   8     0.06  -0.05   0.00    -0.09   0.06   0.00     0.00  -0.02  -0.00
    10   7    -0.02   0.02  -0.00     0.16  -0.20  -0.00    -0.08  -0.07   0.00
    11   1     0.26  -0.47   0.00    -0.38   0.75   0.00    -0.25   0.20  -0.00
    12   1     0.46  -0.08  -0.00    -0.12  -0.03  -0.00    -0.03  -0.02   0.00
                     25                     26                     27
                     A'                     A'                     A'
 Frequencies --   1811.3747              1840.5314              3225.7116
 Red. masses --      8.3301                 8.7011                 1.0932
 Frc consts  --     16.1034                17.3665                 6.7018
 IR Inten    --    944.8256               642.4220                 1.9069
  Atom  AN      X      Y      Z        X      Y      Z        X      Y      Z
     1   6     0.16  -0.06   0.00     0.58  -0.31  -0.00    -0.00   0.00   0.00
     2   6     0.06   0.03   0.00     0.00  -0.01  -0.00    -0.01  -0.09  -0.00
     3   6    -0.10  -0.12  -0.00     0.03   0.03   0.00    -0.01   0.01   0.00
     4   6     0.48   0.41  -0.00    -0.14  -0.12  -0.00     0.00  -0.00   0.00
     5   7    -0.11  -0.04   0.00    -0.10   0.02  -0.00    -0.00  -0.00  -0.00
     6   1    -0.04   0.05  -0.00     0.02  -0.02   0.00     0.07   0.97  -0.00
     7   1     0.11   0.23  -0.00    -0.03  -0.07   0.00     0.17  -0.10   0.00
     8   8    -0.30  -0.22  -0.00     0.10   0.07   0.00    -0.00  -0.00  -0.00
     9   8    -0.08   0.04  -0.00    -0.32   0.18   0.00     0.00  -0.00  -0.00
    10   7    -0.02   0.00   0.00    -0.09   0.09  -0.00    -0.00   0.00   0.00
    11   1     0.04  -0.09  -0.00     0.22  -0.45   0.00    -0.00  -0.01  -0.00
    12   1     0.55  -0.03   0.00     0.32   0.03  -0.00    -0.00   0.00   0.00
                     28                     29                     30
                     A'                     A'                     A'
 Frequencies --   3264.9361              3622.9176              3664.9808
 Red. masses --      1.0973                 1.0777                 1.0791
 Frc consts  --      6.8916                 8.3346                 8.5403
 IR Inten    --      2.0915                80.2393               121.1477
  Atom  AN      X      Y      Z        X      Y      Z        X      Y      Z
     1   6     0.00   0.00   0.00     0.00   0.00  -0.00    -0.00   0.00  -0.00
     2   6     0.01   0.02   0.00     0.00   0.00   0.00     0.00  -0.00   0.00
     3   6    -0.08   0.04  -0.00    -0.00   0.00  -0.00     0.00   0.00  -0.00
     4   6    -0.00  -0.00  -0.00    -0.00   0.00  -0.00    -0.00  -0.00  -0.00
     5   7     0.00  -0.00   0.00     0.00  -0.07   0.00     0.00   0.00   0.00
     6   1    -0.02  -0.20  -0.00    -0.00  -0.00   0.00    -0.00   0.01   0.00
     7   1     0.85  -0.48   0.00    -0.00   0.00  -0.00    -0.00   0.00  -0.00
     8   8     0.00   0.00   0.00    -0.00  -0.00   0.00     0.00   0.00   0.00
     9   8     0.00  -0.00   0.00     0.00  -0.00   0.00    -0.00   0.00   0.00
    10   7     0.00  -0.00  -0.00    -0.00   0.00   0.00    -0.06  -0.04  -0.00
    11   1     0.00   0.00   0.00     0.01   0.01  -0.00     0.87   0.49   0.00
    12   1    -0.00  -0.00  -0.00    -0.02   1.00  -0.00     0.00  -0.01  -0.00

 -------------------
 - Thermochemistry -
 -------------------
 Temperature   298.150 Kelvin.  Pressure   1.00000 Atm.
 Atom     1 has atomic number  6 and mass  12.00000
 Atom     2 has atomic number  6 and mass  12.00000
 Atom     3 has atomic number  6 and mass  12.00000
 Atom     4 has atomic number  6 and mass  12.00000
 Atom     5 has atomic number  7 and mass  14.00307
 Atom     6 has atomic number  1 and mass   1.00783
 Atom     7 has atomic number  1 and mass   1.00783
 Atom     8 has atomic number  8 and mass  15.99491
 Atom     9 has atomic number  8 and mass  15.99491
 Atom    10 has atomic number  7 and mass  14.00307
 Atom    11 has atomic number  1 and mass   1.00783
 Atom    12 has atomic number  1 and mass   1.00783
 Molecular mass:   112.02728 amu.
 Principal axes and moments of inertia in atomic units:
                           1         2         3
     Eigenvalues --   461.38550 887.266251348.65175
           X            0.99944  -0.03350   0.00000
           Y            0.03350   0.99944   0.00000
           Z           -0.00000   0.00000   1.00000
 This molecule is an asymmetric top.
 Rotational symmetry number  1.
 Warning -- assumption of classical behavior for rotation
           may cause significant error
 Rotational temperatures (Kelvin)      0.18773     0.09762     0.06422
 Rotational constants (GHZ):           3.91157     2.03405     1.33818
 Zero-point vibrational energy     230751.1 (Joules/Mol)
                                   55.15085 (Kcal/Mol)
 Warning -- explicit consideration of   8 degrees of freedom as
           vibrations may cause significant error
 Vibrational temperatures:    209.68   235.67   568.58   574.03   757.65
          (Kelvin)            792.55   809.68   817.17   969.15  1058.93
                             1115.89  1124.92  1188.17  1413.08  1431.59
                             1441.75  1583.61  1749.29  1787.91  2020.32
                             2057.96  2067.24  2192.13  2460.49  2606.16
                             2648.11  4641.08  4697.51  5212.57  5273.09
 
 Zero-point correction=                           0.087888 (Hartree/Particle)
 Thermal correction to Energy=                    0.094031
 Thermal correction to Enthalpy=                  0.094976
 Thermal correction to Gibbs Free Energy=         0.057468
 Sum of electronic and zero-point Energies=           -414.682183
 Sum of electronic and thermal Energies=              -414.676041
 Sum of electronic and thermal Enthalpies=            -414.675096
 Sum of electronic and thermal Free Energies=         -414.712604
 
                     E (Thermal)             CV                S
                      KCal/Mol        Cal/Mol-Kelvin    Cal/Mol-Kelvin
 Total                   59.006             23.126             78.941
 Electronic               0.000              0.000              0.000
 Translational            0.889              2.981             40.057
 Rotational               0.889              2.981             27.803
 Vibrational             57.228             17.164             11.081
 Vibration     1          0.617              1.907              2.727
 Vibration     2          0.623              1.887              2.505
 Vibration     3          0.762              1.480              0.981
 Vibration     4          0.765              1.472              0.966
 Vibration     5          0.882              1.191              0.595
 Vibration     6          0.906              1.138              0.542
 Vibration     7          0.918              1.112              0.518
 Vibration     8          0.924              1.101              0.508
                       Q            Log10(Q)             Ln(Q)
 Total Bot       0.368523D-26        -26.433536        -60.865466
 Total V=0       0.982464D+14         13.992316         32.218499
 Vib (Bot)       0.297283D-39        -39.526830        -91.013889
 Vib (Bot)    1  0.139308D+01          0.143975          0.331514
 Vib (Bot)    2  0.123275D+01          0.090874          0.209244
 Vib (Bot)    3  0.452606D+00         -0.344280         -0.792733
 Vib (Bot)    4  0.447076D+00         -0.349618         -0.805026
 Vib (Bot)    5  0.304670D+00         -0.516170         -1.188526
 Vib (Bot)    6  0.284658D+00         -0.545677         -1.256468
 Vib (Bot)    7  0.275439D+00         -0.559974         -1.289388
 Vib (Bot)    8  0.271521D+00         -0.566196         -1.303716
 Vib (V=0)       0.792542D+01          0.899022          2.070076
 Vib (V=0)    1  0.198009D+01          0.296685          0.683141
 Vib (V=0)    2  0.183029D+01          0.262519          0.604473
 Vib (V=0)    3  0.117443D+01          0.069826          0.160781
 Vib (V=0)    4  0.117073D+01          0.068456          0.157626
 Vib (V=0)    5  0.108551D+01          0.035634          0.082051
 Vib (V=0)    6  0.107535D+01          0.031551          0.072648
 Vib (V=0)    7  0.107085D+01          0.029728          0.068450
 Vib (V=0)    8  0.106897D+01          0.028964          0.066693
 Electronic      0.100000D+01          0.000000          0.000000
 Translational   0.466058D+08          7.668440         17.657235
 Rotational      0.265983D+06          5.424854         12.491189
 
                                                                Uracil
                                                             IR Spectrum
 
     3 3           3 3                                               11  1      1 111    11   1 1                                    
     6 6           2 2                                               88  7      5 444    22   1 099     8777 6 5555   33      11     
     6 2           6 2                                               41  1      2 330    41   0 098     2873 7 6652   99      64     
     5 3           5 6                                               11  0      4 704    36   1 252     6266 4 8317   95      46     
 
     X X           X X                                               XX  X      X XXX    XX   X XXX     XXXX X XXXX   XX      XX     
     X X                                                             XX  X      X  X      X                  X                       
     X                                                               XX         X         X                                          
                                                                     XX                                                              
                                                                     XX                                                              
                                                                     XX                                                              
                                                                     XX                                                              
                                                                     XX                                                              
                                                                     XX                                                              
                                                                     XX                                                              
                                                                     XX                                                              
                                                                     XX                                                              
                                                                     XX                                                              
                                                                     XX                                                              
                                                                      X                                                              
                                                                      X                                                              
                                                                      X                                                              
                                                                      X                                                              
                                                                      X                                                              
                                                                      X                                                              
 
 ***** Axes restored to original set *****
 -------------------------------------------------------------------
 Center     Atomic                   Forces (Hartrees/Bohr)
 Number     Number              X              Y              Z
 -------------------------------------------------------------------
      1        6          -0.000320604    0.000008358   -0.000000000
      2        6           0.000055280   -0.000032845    0.000000000
      3        6          -0.000090439   -0.000109042    0.000000000
      4        6           0.000242243    0.000184337   -0.000000000
      5        7           0.000147943    0.000029242   -0.000000000
      6        1           0.000000663   -0.000015867    0.000000000
      7        1           0.000027797   -0.000005934    0.000000000
      8        8          -0.000145894   -0.000074819    0.000000000
      9        8           0.000123599   -0.000013718    0.000000000
     10        7          -0.000011426    0.000044659   -0.000000000
     11        1           0.000009773   -0.000035691    0.000000000
     12        1          -0.000038935    0.000021322   -0.000000000
 -------------------------------------------------------------------
 Cartesian Forces:  Max     0.000320604 RMS     0.000089959
 Z-matrix is all fixed cartesians, so copy forces.
 Force constants in Cartesian coordinates: 
                1             2             3             4             5 
      1  0.946615D+00
      2 -0.173147D+00  0.706944D+00
      3  0.000000D+00  0.000000D+00  0.213597D+00
      4  0.262985D-01  0.716152D-01  0.000000D+00  0.778644D+00
      5  0.305090D-01 -0.301234D-01  0.000000D+00  0.107110D+00  0.785127D+00
      6  0.000000D+00  0.000000D+00 -0.404834D-02  0.000000D+00  0.000000D+00
      7 -0.657691D-02 -0.240861D-01  0.000000D+00 -0.407178D+00 -0.169839D+00
      8 -0.134181D-01 -0.263256D-01  0.000000D+00 -0.140691D+00 -0.228366D+00
      9  0.000000D+00  0.000000D+00  0.129244D-02  0.000000D+00  0.000000D+00
     10 -0.582141D-01 -0.366760D-01  0.000000D+00  0.204177D-01 -0.460060D-01
     11  0.220283D-01  0.743468D-01  0.000000D+00 -0.645586D-01 -0.684960D-02
     12  0.000000D+00  0.000000D+00 -0.154728D-01  0.000000D+00  0.000000D+00
     13 -0.224884D+00 -0.339960D-01  0.000000D+00 -0.354671D-01  0.893967D-02
     14 -0.783651D-01 -0.201764D+00  0.000000D+00 -0.731761D-02 -0.227636D-03
     15  0.000000D+00  0.000000D+00 -0.575895D-01  0.000000D+00  0.000000D+00
     16 -0.471272D-02 -0.237230D-02  0.000000D+00 -0.621964D-01 -0.296697D-01
     17  0.242472D-02  0.332143D-02  0.000000D+00 -0.227326D-01 -0.346182D+00
     18  0.000000D+00  0.000000D+00  0.394272D-02  0.000000D+00  0.000000D+00
     19  0.491582D-04 -0.375768D-03  0.000000D+00 -0.169846D-01  0.154672D-01
     20 -0.193652D-02 -0.253415D-02  0.000000D+00 -0.156207D-01  0.123188D-01
     21  0.000000D+00  0.000000D+00 -0.268432D-03  0.000000D+00  0.000000D+00
     22  0.162285D-01  0.193503D-01  0.000000D+00  0.574746D-02  0.275123D-02
     23  0.472996D-03 -0.112970D-01  0.000000D+00  0.188848D-01 -0.107698D-01
     24  0.000000D+00  0.000000D+00  0.712981D-02  0.000000D+00  0.000000D+00
     25 -0.561138D+00  0.251540D+00  0.000000D+00 -0.247050D-02  0.805026D-03
     26  0.252821D+00 -0.245664D+00  0.000000D+00 -0.161090D-01 -0.269469D-02
     27  0.000000D+00  0.000000D+00 -0.844756D-01  0.000000D+00  0.000000D+00
     28 -0.155505D+00 -0.326542D-01  0.000000D+00 -0.285955D+00  0.940131D-01
     29 -0.398155D-04 -0.242929D+00  0.000000D+00  0.512413D-01 -0.189998D+00
     30  0.000000D+00  0.000000D+00 -0.626243D-01  0.000000D+00  0.000000D+00
     31  0.104491D-01 -0.191783D-02  0.000000D+00 -0.194372D-01 -0.144365D-01
     32 -0.393386D-01 -0.115046D-01  0.000000D+00  0.176405D-01  0.172472D-01
     33  0.000000D+00  0.000000D+00 -0.579692D-03  0.000000D+00  0.000000D+00
     34  0.113909D-01 -0.372801D-01  0.000000D+00 -0.141879D-02  0.355643D-03
     35 -0.201048D-02 -0.124700D-01  0.000000D+00  0.537428D-03  0.517441D-03
     36  0.000000D+00  0.000000D+00 -0.903472D-03  0.000000D+00  0.000000D+00
                6             7             8             9            10 
      6  0.141139D+00
      7  0.000000D+00  0.874297D+00
      8  0.000000D+00  0.274082D-01  0.636368D+00
      9 -0.567228D-01  0.000000D+00  0.000000D+00  0.103028D+00
     10  0.000000D+00 -0.113030D+00  0.159481D-01  0.000000D+00  0.799103D+00
     11  0.000000D+00  0.309250D-01 -0.228606D+00  0.000000D+00  0.222537D+00
     12  0.139917D-02  0.000000D+00  0.000000D+00 -0.762013D-01  0.000000D+00
     13  0.000000D+00  0.116486D-01  0.309856D-01  0.000000D+00 -0.172720D+00
     14  0.000000D+00  0.410175D-01 -0.184748D-01  0.000000D+00  0.670704D-01
     15  0.145473D-02  0.000000D+00  0.000000D+00  0.862882D-02  0.000000D+00
     16  0.000000D+00  0.491116D-02 -0.277907D-01  0.000000D+00 -0.531859D-02
     17  0.000000D+00  0.914572D-03 -0.769945D-02  0.000000D+00 -0.172015D-02
     18 -0.431248D-01  0.000000D+00  0.000000D+00  0.916109D-02  0.000000D+00
     19  0.000000D+00 -0.283039D+00  0.130753D+00  0.000000D+00  0.448949D-02
     20  0.000000D+00  0.131172D+00 -0.131520D+00  0.000000D+00  0.297868D-01
     21 -0.600485D-03  0.000000D+00  0.000000D+00 -0.278155D-01  0.000000D+00
     22  0.000000D+00 -0.717228D-02 -0.339457D-01  0.000000D+00 -0.496925D+00
     23  0.000000D+00 -0.587030D-01 -0.427939D-01  0.000000D+00 -0.284463D+00
     24  0.323051D-02  0.000000D+00  0.000000D+00  0.224440D-01  0.000000D+00
     25  0.000000D+00 -0.486122D-03  0.584621D-02  0.000000D+00  0.189529D-01
     26  0.000000D+00  0.561923D-02  0.421281D-02  0.000000D+00  0.359254D-02
     27  0.495489D-02  0.000000D+00  0.000000D+00 -0.113493D-02  0.000000D+00
     28  0.000000D+00 -0.668657D-01 -0.203502D-02  0.000000D+00 -0.652227D-02
     29  0.000000D+00  0.898428D-02  0.440405D-01  0.000000D+00  0.255553D-01
     30 -0.400433D-01  0.000000D+00  0.000000D+00  0.102495D-01  0.000000D+00
     31  0.000000D+00 -0.395588D-03  0.542343D-02  0.000000D+00 -0.509696D-03
     32  0.000000D+00  0.463646D-02 -0.182530D-02  0.000000D+00  0.119157D-02
     33 -0.696665D-02  0.000000D+00  0.000000D+00  0.329430D-02  0.000000D+00
     34  0.000000D+00 -0.611292D-02  0.151639D-02  0.000000D+00  0.102766D-01
     35  0.000000D+00  0.195041D-02  0.989523D-03  0.000000D+00  0.318360D-02
     36 -0.672202D-03  0.000000D+00  0.000000D+00  0.377647D-02  0.000000D+00
               11            12            13            14            15 
     11  0.748559D+00
     12  0.000000D+00  0.201799D+00
     13  0.311546D-01  0.000000D+00  0.688049D+00
     14 -0.196268D+00  0.000000D+00  0.168627D-01  0.849036D+00
     15  0.000000D+00 -0.512617D-01  0.000000D+00  0.000000D+00  0.588822D-01
     16  0.556675D-03  0.000000D+00  0.115101D-02  0.664965D-04  0.000000D+00
     17  0.817055D-03  0.000000D+00 -0.507709D-03  0.506383D-03  0.000000D+00
     18  0.000000D+00  0.122178D-01  0.000000D+00  0.000000D+00 -0.103397D-02
     19 -0.357863D-02  0.000000D+00  0.520796D-03 -0.120840D-02  0.000000D+00
     20 -0.772932D-02  0.000000D+00 -0.207448D-03 -0.652176D-02  0.000000D+00
     21  0.000000D+00  0.753247D-03  0.000000D+00  0.000000D+00  0.253598D-02
     22 -0.290772D+00  0.000000D+00 -0.110265D+00 -0.277522D-01  0.000000D+00
     23 -0.316803D+00  0.000000D+00 -0.217102D-02  0.356403D-01  0.000000D+00
     24  0.000000D+00 -0.763419D-01  0.000000D+00  0.000000D+00  0.196702D-01
     25 -0.154469D-01  0.000000D+00 -0.101534D+00  0.194292D-01  0.000000D+00
     26 -0.114227D-01  0.000000D+00 -0.113516D-01  0.326536D-01  0.000000D+00
     27  0.000000D+00  0.732635D-02  0.000000D+00  0.000000D+00  0.217958D-01
     28  0.314285D-01  0.000000D+00  0.175899D-01 -0.431526D-01  0.000000D+00
     29 -0.422418D-01  0.000000D+00 -0.482347D-01 -0.390102D-01  0.000000D+00
     30  0.000000D+00 -0.490904D-02  0.000000D+00  0.000000D+00  0.991331D-02
     31 -0.110017D-02  0.000000D+00  0.460737D-03  0.240097D-02  0.000000D+00
     32 -0.261374D-02  0.000000D+00  0.198924D-02 -0.695281D-02  0.000000D+00
     33  0.000000D+00 -0.686830D-03  0.000000D+00  0.000000D+00  0.289186D-02
     34  0.368268D-01  0.000000D+00 -0.745488D-01  0.109486D-01  0.000000D+00
     35 -0.111888D-01  0.000000D+00  0.653679D-02 -0.448617D+00  0.000000D+00
     36  0.000000D+00  0.137851D-02  0.000000D+00  0.000000D+00 -0.158877D-01
               16            17            18            19            20 
     16  0.639018D-01
     17  0.216931D-01  0.364595D+00
     18  0.000000D+00  0.000000D+00  0.263581D-01
     19  0.591789D-03 -0.887224D-04  0.000000D+00  0.295358D+00
     20  0.421046D-03  0.723944D-03  0.000000D+00 -0.138169D+00  0.132038D+00
     21  0.000000D+00  0.000000D+00 -0.597649D-02  0.000000D+00  0.000000D+00
     22 -0.235173D-03 -0.226249D-03  0.000000D+00  0.486423D-03 -0.246672D-02
     23 -0.229052D-02 -0.748181D-03  0.000000D+00  0.763328D-03  0.287642D-02
     24  0.000000D+00  0.000000D+00 -0.260814D-02  0.000000D+00  0.000000D+00
     25 -0.851805D-03  0.348761D-03  0.000000D+00  0.156960D-03  0.416738D-03
     26  0.238232D-02 -0.125306D-02  0.000000D+00  0.105915D-03  0.768383D-03
     27  0.000000D+00  0.000000D+00 -0.308815D-03  0.000000D+00  0.000000D+00
     28  0.165805D-02 -0.323542D-03  0.000000D+00 -0.138131D-02 -0.422480D-02
     29  0.368325D-01 -0.144694D-01  0.000000D+00 -0.424044D-02 -0.745766D-03
     30  0.000000D+00  0.000000D+00  0.325630D-02  0.000000D+00  0.000000D+00
     31  0.102000D-02  0.230886D-03  0.000000D+00 -0.533112D-03 -0.619623D-03
     32  0.163313D-03  0.397617D-03  0.000000D+00  0.727379D-03  0.598747D-03
     33  0.000000D+00  0.000000D+00 -0.147368D-02  0.000000D+00  0.000000D+00
     34  0.808529D-04 -0.130522D-04  0.000000D+00  0.284834D-03  0.144806D-02
     35  0.788796D-05 -0.937248D-05  0.000000D+00 -0.155418D-03 -0.273545D-03
     36  0.000000D+00  0.000000D+00 -0.410206D-03  0.000000D+00  0.000000D+00
               21            22            23            24            25 
     21  0.227954D-01
     22  0.000000D+00  0.605816D+00
     23  0.000000D+00  0.343618D+00  0.328746D+00
     24 -0.175790D-02  0.000000D+00  0.000000D+00  0.342355D-01
     25  0.000000D+00 -0.118148D-01 -0.983795D-03  0.000000D+00  0.664979D+00
     26  0.000000D+00 -0.123879D-02  0.308898D-02  0.000000D+00 -0.314963D+00
     27 -0.410523D-03  0.000000D+00  0.000000D+00 -0.156496D-02  0.000000D+00
     28  0.000000D+00 -0.446231D-02 -0.987296D-02  0.000000D+00 -0.335964D-02
     29  0.000000D+00 -0.653763D-02  0.101282D-01  0.000000D+00  0.462498D-01
     30  0.878756D-02  0.000000D+00  0.000000D+00  0.837951D-05  0.000000D+00
     31  0.000000D+00  0.828925D-03  0.737304D-03  0.000000D+00 -0.288821D-02
     32  0.000000D+00  0.839303D-04  0.103081D-02  0.000000D+00  0.358083D-02
     33  0.176912D-02  0.000000D+00  0.000000D+00 -0.215473D-03  0.000000D+00
     34  0.000000D+00  0.176727D-02 -0.599229D-02  0.000000D+00  0.454501D-03
     35  0.000000D+00 -0.286384D-02  0.900804D-03  0.000000D+00  0.317756D-02
     36  0.188099D-03  0.000000D+00  0.000000D+00 -0.422991D-02  0.000000D+00
               26            27            28            29            30 
     26  0.276751D+00
     27  0.000000D+00  0.396545D-01
     28  0.733385D-01  0.000000D+00  0.877699D+00
     29 -0.617523D-01  0.000000D+00  0.616084D-01  0.704604D+00
     30  0.000000D+00  0.216627D-01  0.000000D+00  0.000000D+00  0.567656D-01
     31  0.837632D-03  0.000000D+00 -0.366235D+00 -0.168524D+00  0.000000D+00
     32  0.430020D-02  0.000000D+00 -0.166021D+00 -0.169541D+00  0.000000D+00
     33  0.000000D+00 -0.373601D-02  0.000000D+00  0.000000D+00 -0.691123D-02
     34  0.496607D-02  0.000000D+00 -0.666064D-02 -0.289474D-02  0.000000D+00
     35  0.101216D-02  0.000000D+00 -0.210467D-02  0.191531D-02  0.000000D+00
     36  0.000000D+00 -0.376343D-02  0.000000D+00  0.000000D+00  0.384454D-02
               31            32            33            34            35 
     31  0.376770D+00
     32  0.176843D+00  0.169074D+00
     33  0.000000D+00  0.000000D+00  0.115335D-01
     34  0.469386D-03 -0.149694D-02  0.000000D+00  0.640168D-01
     35  0.125141D-03 -0.210350D-03  0.000000D+00 -0.838441D-02  0.467434D+00
     36  0.000000D+00  0.000000D+00  0.108081D-02  0.000000D+00  0.000000D+00
               36 
     36  0.155985D-01
 Leave Link  716 at Tue Nov 22 13:23:42 2022, MaxMem=   671088640 cpu:               0.9 elap:               0.0
 (Enter /shared/gaussian/g16.b01/AVX2/g16/l103.exe)

 GradGradGradGradGradGradGradGradGradGradGradGradGradGradGradGradGradGrad
 Berny optimization.
 Search for a local minimum.
 Step number   1 out of a maximum of    2
 All quantities printed in internal units (Hartrees-Bohrs-Radians)
 Second derivative matrix not updated -- analytic derivatives used.
 ITU=  0
     Eigenvalues ---    0.00590   0.00848   0.01640   0.01968   0.04101
     Eigenvalues ---    0.04776   0.05295   0.05944   0.06108   0.06412
     Eigenvalues ---    0.08202   0.11155   0.11170   0.18563   0.18656
     Eigenvalues ---    0.23560   0.28427   0.28774   0.30682   0.50619
     Eigenvalues ---    0.52946   0.73452   0.81527   0.87679   1.12280
     Eigenvalues ---    1.23002   1.25467   1.46943   1.61501   1.68601
 Angle between quadratic step and forces=  62.02 degrees.
 ClnCor:  largest displacement from symmetrization is 2.43D-17 for atom     7.
 Linear search not attempted -- first point.
 ClnCor:  largest displacement from symmetrization is 8.88D-16 for atom     8.
 B after Tr=     0.000036    0.000066   -0.000000
         Rot=    1.000000   -0.000000    0.000000    0.000011 Ang=   0.00 deg.
 Variable       Old X    -DE/DX   Delta X   Delta X   Delta X     New X
                                 (Linear)    (Quad)   (Total)
    X1       -2.32110  -0.00032   0.00000  -0.00043  -0.00038  -2.32148
    Y1        0.68191   0.00001   0.00000  -0.00008   0.00004   0.68195
    Z1       -0.00000  -0.00000   0.00000   0.00000  -0.00000  -0.00000
    X2        0.10554   0.00006   0.00000   0.00003   0.00000   0.10554
    Y2       -3.21299  -0.00003   0.00000  -0.00009  -0.00003  -3.21301
    Z2        0.00000   0.00000   0.00000   0.00000   0.00000   0.00000
    X3        2.33335  -0.00009   0.00000  -0.00002  -0.00002   2.33332
    Y3       -2.01256  -0.00011   0.00000  -0.00019  -0.00017  -2.01273
    Z3        0.00000   0.00000   0.00000   0.00000   0.00000   0.00000
    X4        2.40031   0.00024   0.00000   0.00038   0.00043   2.40074
    Y4        0.73871   0.00018   0.00000   0.00024   0.00025   0.73896
    Z4       -0.00000  -0.00000   0.00000  -0.00000   0.00000   0.00000
    X5       -0.00068   0.00015   0.00000   0.00014   0.00022  -0.00046
    Y5        1.86358   0.00003   0.00000  -0.00005   0.00001   1.86359
    Z5       -0.00000  -0.00000   0.00000   0.00000  -0.00000  -0.00000
    X6       -0.04784   0.00000   0.00000  -0.00001  -0.00008  -0.04792
    Y6       -5.25205  -0.00002   0.00000  -0.00013  -0.00006  -5.25211
    Z6        0.00000   0.00000   0.00000   0.00000  -0.00000   0.00000
    X7        4.10650   0.00003   0.00000   0.00006   0.00003   4.10654
    Y7       -3.01728  -0.00001   0.00000  -0.00021  -0.00023  -3.01751
    Z7        0.00000   0.00000   0.00000   0.00000   0.00000   0.00000
    X8        4.28206  -0.00015   0.00000   0.00012   0.00020   4.28226
    Y8        2.03486  -0.00007   0.00000   0.00016   0.00013   2.03499
    Z8       -0.00000   0.00000   0.00000  -0.00000   0.00000   0.00000
    X9       -4.31613   0.00012   0.00000   0.00011   0.00018  -4.31595
    Y9        1.78821  -0.00001   0.00000   0.00048   0.00064   1.78885
    Z9       -0.00000   0.00000   0.00000  -0.00000  -0.00000  -0.00000
   X10       -2.14795  -0.00001   0.00000  -0.00019  -0.00020  -2.14815
   Y10       -1.93012   0.00004   0.00000  -0.00007   0.00004  -1.93008
   Z10        0.00000  -0.00000   0.00000   0.00000  -0.00000  -0.00000
   X11       -3.81456   0.00001   0.00000   0.00020   0.00017  -3.81439
   Y11       -2.85296  -0.00004   0.00000  -0.00081  -0.00066  -2.85362
   Z11        0.00000   0.00000   0.00000   0.00000  -0.00000  -0.00000
   X12       -0.04264  -0.00004   0.00000  -0.00067  -0.00055  -0.04319
   Y12        3.77535   0.00002   0.00000  -0.00002   0.00004   3.77539
   Z12       -0.00000  -0.00000   0.00000   0.00000  -0.00000  -0.00000
         Item               Value     Threshold  Converged?
 Maximum Force            0.000321     0.000450     YES
 RMS     Force            0.000090     0.000300     YES
 Maximum Displacement     0.000658     0.001800     YES
 RMS     Displacement     0.000226     0.001200     YES
 Predicted change in Energy=-1.780494D-07
 Optimization completed.
    -- Stationary point found.
 GradGradGradGradGradGradGradGradGradGradGradGradGradGradGradGradGradGrad

 Leave Link  103 at Tue Nov 22 13:23:42 2022, MaxMem=   671088640 cpu:               0.6 elap:               0.0
 (Enter /shared/gaussian/g16.b01/AVX2/g16/l9999.exe)

 ----------------------------------------------------------------------

 Electric dipole moment (input orientation):
 (Debye = 10**-18 statcoulomb cm , SI units = C m)
                  (au)            (Debye)         (10**-30 SI)
   Tot        0.181805D+01      0.462102D+01      0.154141D+02
   x         -0.445791D+00     -0.113309D+01     -0.377957D+01
   y         -0.176255D+01     -0.447995D+01     -0.149435D+02
   z          0.000000D+00      0.000000D+00      0.000000D+00

 Dipole polarizability, Alpha (input orientation).
 (esu units = cm**3 , SI units = C**2 m**2 J**-1)
 Alpha(0;0):
               (au)            (10**-24 esu)      (10**-40 SI)
   iso        0.647682D+02      0.959766D+01      0.106788D+02
   aniso      0.459712D+02      0.681222D+01      0.757962D+01
   xx         0.887227D+02      0.131473D+02      0.146284D+02
   yx         0.354100D+01      0.524721D+00      0.583831D+00
   yy         0.689635D+02      0.102193D+02      0.113705D+02
   zx         0.000000D+00      0.000000D+00      0.000000D+00
   zy         0.000000D+00      0.000000D+00      0.000000D+00
   zz         0.366185D+02      0.542630D+01      0.603758D+01

 ----------------------------------------------------------------------

 Dipole orientation:
     6         -2.34364865          0.59276544         -0.09195318
     6          0.86297252         -0.21826663          3.08902173
     6          2.67147513         -0.67568068          1.37898113
     6          2.08039038         -0.52618105         -1.30472675
     7         -0.44364273          0.11220798         -1.80652177
     1          1.20353761         -0.30440378          5.10344688
     1          4.57685908         -1.15759837          1.91823858
     8          3.54088673         -0.89557591         -3.02271290
     8         -4.48171412          1.13353391         -0.67529157
     7         -1.55998452          0.39455782          2.39787982
     1         -2.90701675          0.73525486          3.70120719
     1         -0.93753965          0.23712646         -3.64963823

 Electric dipole moment (dipole orientation):
 (Debye = 10**-18 statcoulomb cm , SI units = C m)
                  (au)            (Debye)         (10**-30 SI)
   Tot        0.181805D+01      0.462102D+01      0.154141D+02
   x          0.000000D+00      0.000000D+00      0.000000D+00
   y          0.000000D+00      0.000000D+00      0.000000D+00
   z          0.181805D+01      0.462102D+01      0.154141D+02

 Dipole polarizability, Alpha (dipole orientation).
 (esu units = cm**3 , SI units = C**2 m**2 J**-1)
 Alpha(0;0):
               (au)            (10**-24 esu)      (10**-40 SI)
   iso        0.647682D+02      0.959766D+01      0.106788D+02
   aniso      0.459712D+02      0.681222D+01      0.757962D+01
   xx         0.828910D+02      0.122832D+02      0.136669D+02
   yx        -0.117034D+02     -0.173427D+01     -0.192964D+01
   yy         0.395786D+02      0.586494D+01      0.652563D+01
   zx        -0.757380D+01     -0.112232D+01     -0.124875D+01
   zy         0.191560D+01      0.283862D+00      0.315839D+00
   zz         0.718350D+02      0.106448D+02      0.118440D+02

 ----------------------------------------------------------------------
 1\1\GINC-BAKU1\Freq\RCAM-B3LYP\6-311+G(d,p)\C4H4N2O2\ROOT\22-Nov-2022\
 0\\#p freq cam-b3lyp/6-311+G(d,p) symm=loose\\Uracil\\0,1\C,-1.228274,
 0.360852,0.\C,0.055847,-1.700239,0.\C,1.234753,-1.065003,0.\C,1.270191
 ,0.390911,0.\N,-0.000359,0.986164,0.\H,-0.025317,-2.779266,0.\H,2.1730
 67,-1.596674,0.\O,2.265971,1.076801,0.\O,-2.283998,0.94628,0.\N,-1.136
 647,-1.021375,0.\H,-2.01858,-1.509722,0.\H,-0.022563,1.997828,0.\\Vers
 ion=ES64L-G16RevB.01\State=1-A'\HF=-414.7700719\RMSD=8.401e-09\RMSF=8.
 996e-05\ZeroPoint=0.0878885\Thermal=0.0940314\Dipole=-0.4457911,-1.762
 5484,0.\DipoleDeriv=2.1524202,-0.3800156,0.,-0.7059013,1.5629213,0.,0.
 ,0.,0.4126826,1.3392648,0.1351208,0.,-0.2819931,0.23345,0.,0.,0.,0.021
 6614,-0.4866504,-0.1523898,0.,-0.5277216,-0.6377722,0.,0.,0.,-0.239307
 5,1.9512968,0.2774513,0.,0.5651386,1.4190305,0.,0.,0.,0.3581207,-1.569
 0095,0.024094,0.,0.0325271,-0.4446004,0.,0.,0.,-0.345945,0.0761514,-0.
 0119702,0.,0.0076695,-0.0060204,0.,0.,0.,0.1428119,0.0511828,0.0288259
 ,0.,0.0167349,0.0460223,0.,0.,0.,0.1712836,-1.3290074,-0.3939328,0.,-0
 .6479185,-0.9000058,0.,0.,0.,-0.4115714,-1.5065353,0.4659669,0.,0.5743
 161,-0.8077561,0.,0.,0.,-0.432014,-1.0720685,-0.0689594,0.,0.8660118,-
 0.9327734,0.,0.,0.,-0.2976938,0.2563593,0.0748834,0.,0.0953036,0.20487
 ,0.,0.,0.,0.3189934,0.136596,0.0009255,0.,0.005833,0.2626341,0.,0.,0.,
 0.300978\Polar=88.7226507,3.5409953,68.9634624,0.,0.,36.6185128\Quadru
 pole=-8.200032,7.1539899,1.0460421,1.2348859,0.,0.\PG=CS [SG(C4H4N2O2)
 ]\NImag=0\\0.94661475,-0.17314699,0.70694438,0.,0.,0.21359710,0.026298
 50,0.07161523,0.,0.77864408,0.03050898,-0.03012337,0.,0.10711009,0.785
 12673,0.,0.,-0.00404834,0.,0.,0.14113932,-0.00657691,-0.02408613,0.,-0
 .40717809,-0.16983866,0.,0.87429684,-0.01341815,-0.02632564,0.,-0.1406
 9089,-0.22836553,0.,0.02740817,0.63636783,0.,0.,0.00129244,0.,0.,-0.05
 672283,0.,0.,0.10302808,-0.05821412,-0.03667604,0.,0.02041768,-0.04600
 603,0.,-0.11303025,0.01594806,0.,0.79910343,0.02202832,0.07434682,0.,-
 0.06455858,-0.00684960,0.,0.03092503,-0.22860594,0.,0.22253690,0.74855
 868,0.,0.,-0.01547279,0.,0.,0.00139917,0.,0.,-0.07620134,0.,0.,0.20179
 855,-0.22488433,-0.03399603,0.,-0.03546714,0.00893967,0.,0.01164861,0.
 03098559,0.,-0.17272049,0.03115458,0.,0.68804912,-0.07836511,-0.201764
 49,0.,-0.00731761,-0.00022764,0.,0.04101750,-0.01847477,0.,0.06707044,
 -0.19626763,0.,0.01686267,0.84903597,0.,0.,-0.05758947,0.,0.,0.0014547
 3,0.,0.,0.00862882,0.,0.,-0.05126171,0.,0.,0.05888218,-0.00471272,-0.0
 0237230,0.,-0.06219639,-0.02966974,0.,0.00491116,-0.02779072,0.,-0.005
 31859,0.00055668,0.,0.00115101,0.00006650,0.,0.06390182,0.00242472,0.0
 0332143,0.,-0.02273257,-0.34618161,0.,0.00091457,-0.00769945,0.,-0.001
 72015,0.00081705,0.,-0.00050771,0.00050638,0.,0.02169305,0.36459465,0.
 ,0.,0.00394272,0.,0.,-0.04312477,0.,0.,0.00916109,0.,0.,0.01221784,0.,
 0.,-0.00103397,0.,0.,0.02635811,0.00004916,-0.00037577,0.,-0.01698460,
 0.01546719,0.,-0.28303879,0.13075265,0.,0.00448949,-0.00357863,0.,0.00
 052080,-0.00120840,0.,0.00059179,-0.00008872,0.,0.29535836,-0.00193652
 ,-0.00253415,0.,-0.01562066,0.01231884,0.,0.13117218,-0.13152017,0.,0.
 02978682,-0.00772932,0.,-0.00020745,-0.00652176,0.,0.00042105,0.000723
 94,0.,-0.13816908,0.13203837,0.,0.,-0.00026843,0.,0.,-0.00060048,0.,0.
 ,-0.02781554,0.,0.,0.00075325,0.,0.,0.00253598,0.,0.,-0.00597649,0.,0.
 ,0.02279536,0.01622855,0.01935026,0.,0.00574746,0.00275123,0.,-0.00717
 228,-0.03394573,0.,-0.49692471,-0.29077249,0.,-0.11026540,-0.02775223,
 0.,-0.00023517,-0.00022625,0.,0.00048642,-0.00246672,0.,0.60581605,0.0
 0047300,-0.01129699,0.,0.01888482,-0.01076979,0.,-0.05870304,-0.042793
 85,0.,-0.28446305,-0.31680304,0.,-0.00217102,0.03564031,0.,-0.00229052
 ,-0.00074818,0.,0.00076333,0.00287642,0.,0.34361825,0.32874631,0.,0.,0
 .00712981,0.,0.,0.00323051,0.,0.,0.02244396,0.,0.,-0.07634194,0.,0.,0.
 01967017,0.,0.,-0.00260814,0.,0.,-0.00175790,0.,0.,0.03423549,-0.56113
 794,0.25153991,0.,-0.00247050,0.00080503,0.,-0.00048612,0.00584621,0.,
 0.01895292,-0.01544690,0.,-0.10153402,0.01942919,0.,-0.00085181,0.0003
 4876,0.,0.00015696,0.00041674,0.,-0.01181480,-0.00098380,0.,0.66497865
 ,0.25282064,-0.24566402,0.,-0.01610904,-0.00269469,0.,0.00561923,0.004
 21281,0.,0.00359254,-0.01142265,0.,-0.01135164,0.03265358,0.,0.0023823
 2,-0.00125306,0.,0.00010591,0.00076838,0.,-0.00123879,0.00308898,0.,-0
 .31496335,0.27675062,0.,0.,-0.08447557,0.,0.,0.00495489,0.,0.,-0.00113
 493,0.,0.,0.00732635,0.,0.,0.02179578,0.,0.,-0.00030881,0.,0.,-0.00041
 052,0.,0.,-0.00156496,0.,0.,0.03965453,-0.15550500,-0.03265421,0.,-0.2
 8595499,0.09401309,0.,-0.06686567,-0.00203502,0.,-0.00652227,0.0314285
 2,0.,0.01758991,-0.04315256,0.,0.00165805,-0.00032354,0.,-0.00138131,-
 0.00422480,0.,-0.00446231,-0.00987296,0.,-0.00335964,0.07333848,0.,0.8
 7769855,-0.00003982,-0.24292935,0.,0.05124129,-0.18999801,0.,0.0089842
 8,0.04404049,0.,0.02555534,-0.04224185,0.,-0.04823468,-0.03901018,0.,0
 .03683248,-0.01446941,0.,-0.00424044,-0.00074577,0.,-0.00653763,0.0101
 2820,0.,0.04624981,-0.06175233,0.,0.06160840,0.70460429,0.,0.,-0.06262
 429,0.,0.,-0.04004335,0.,0.,0.01024949,0.,0.,-0.00490904,0.,0.,0.00991
 331,0.,0.,0.00325630,0.,0.,0.00878756,0.,0.,0.00000838,0.,0.,0.0216627
 0,0.,0.,0.05676562,0.01044911,-0.00191783,0.,-0.01943722,-0.01443648,0
 .,-0.00039559,0.00542343,0.,-0.00050970,-0.00110017,0.,0.00046074,0.00
 240097,0.,0.00102000,0.00023089,0.,-0.00053311,-0.00061962,0.,0.000828
 92,0.00073730,0.,-0.00288821,0.00083763,0.,-0.36623467,-0.16852431,0.,
 0.37677033,-0.03933860,-0.01150463,0.,0.01764049,0.01724722,0.,0.00463
 646,-0.00182530,0.,0.00119157,-0.00261374,0.,0.00198924,-0.00695281,0.
 ,0.00016331,0.00039762,0.,0.00072738,0.00059875,0.,0.00008393,0.001030
 81,0.,0.00358083,0.00430020,0.,-0.16602073,-0.16954140,0.,0.17684305,0
 .16907364,0.,0.,-0.00057969,0.,0.,-0.00696665,0.,0.,0.00329430,0.,0.,-
 0.00068683,0.,0.,0.00289186,0.,0.,-0.00147368,0.,0.,0.00176912,0.,0.,-
 0.00021547,0.,0.,-0.00373601,0.,0.,-0.00691123,0.,0.,0.01153348,0.0113
 9095,-0.03728011,0.,-0.00141879,0.00035564,0.,-0.00611292,0.00151639,0
 .,0.01027660,0.03682676,0.,-0.07454881,0.01094863,0.,0.00008085,-0.000
 01305,0.,0.00028483,0.00144806,0.,0.00176727,-0.00599229,0.,0.00045450
 ,0.00496607,0.,-0.00666064,-0.00289474,0.,0.00046939,-0.00149694,0.,0.
 06401677,-0.00201048,-0.01246999,0.,0.00053743,0.00051744,0.,0.0019504
 1,0.00098952,0.,0.00318360,-0.01118878,0.,0.00653679,-0.44861698,0.,0.
 00000789,-0.00000937,0.,-0.00015542,-0.00027354,0.,-0.00286384,0.00090
 080,0.,0.00317756,0.00101216,0.,-0.00210467,0.00191531,0.,0.00012514,-
 0.00021035,0.,-0.00838441,0.46743378,0.,0.,-0.00090347,0.,0.,-0.000672
 20,0.,0.,0.00377647,0.,0.,0.00137851,0.,0.,-0.01588767,0.,0.,-0.000410
 21,0.,0.,0.00018810,0.,0.,-0.00422991,0.,0.,-0.00376343,0.,0.,0.003844
 54,0.,0.,0.00108081,0.,0.,0.01559847\\0.00032060,-0.00000836,0.,-0.000
 05528,0.00003285,0.,0.00009044,0.00010904,0.,-0.00024224,-0.00018434,0
 .,-0.00014794,-0.00002924,0.,-0.00000066,0.00001587,0.,-0.00002780,0.0
 0000593,0.,0.00014589,0.00007482,0.,-0.00012360,0.00001372,0.,0.000011
 43,-0.00004466,0.,-0.00000977,0.00003569,0.,0.00003894,-0.00002132,0.\
 \\@


 IF YOU WANT TO LEARN FROM THE THEORETICAL PHYSICISTS ABOUT THE
 METHODS WHICH THEY USE, I ADVISE YOU TO FOLLOW THIS PRINCIPLE VERY STRICTLY:
 DON'T LISTEN TO THEIR WORDS; PAY ATTENTION, INSTEAD, TO THEIR ACTIONS.
 -- A.EINSTEIN, 1934
 Job cpu time:       0 days  0 hours 15 minutes 20.4 seconds.
 Elapsed time:       0 days  0 hours  0 minutes 20.1 seconds.
 File lengths (MBytes):  RWF=     54 Int=      0 D2E=      0 Chk=      4 Scr=      1
 Normal termination of Gaussian 16 at Tue Nov 22 13:23:42 2022.
