 Entering Gaussian System, Link 0=/shared/gaussian/g16.b01/AVX2/g16/g16
 Initial command:
 /shared/gaussian/g16.b01/AVX2/g16/l1.exe "/scratch/marlene/SCRGAU.135521.Uracil6311-tddft/Gau-13235.inp" -scrdir="/scratch/marlene/SCRGAU.135521.Uracil6311-tddft/"
 Entering Link 1 = /shared/gaussian/g16.b01/AVX2/g16/l1.exe PID=     13236.
  
 Copyright (c) 1988-2017, Gaussian, Inc.  All Rights Reserved.
  
 This is part of the Gaussian(R) 16 program.  It is based on
 the Gaussian(R) 09 system (copyright 2009, Gaussian, Inc.),
 the Gaussian(R) 03 system (copyright 2003, Gaussian, Inc.),
 the Gaussian(R) 98 system (copyright 1998, Gaussian, Inc.),
 the Gaussian(R) 94 system (copyright 1995, Gaussian, Inc.),
 the Gaussian 92(TM) system (copyright 1992, Gaussian, Inc.),
 the Gaussian 90(TM) system (copyright 1990, Gaussian, Inc.),
 the Gaussian 88(TM) system (copyright 1988, Gaussian, Inc.),
 the Gaussian 86(TM) system (copyright 1986, Carnegie Mellon
 University), and the Gaussian 82(TM) system (copyright 1983,
 Carnegie Mellon University). Gaussian is a federally registered
 trademark of Gaussian, Inc.
  
 This software contains proprietary and confidential information,
 including trade secrets, belonging to Gaussian, Inc.
  
 This software is provided under written license and may be
 used, copied, transmitted, or stored only in accord with that
 written license.
  
 The following legend is applicable only to US Government
 contracts under FAR:
  
                    RESTRICTED RIGHTS LEGEND
  
 Use, reproduction and disclosure by the US Government is
 subject to restrictions as set forth in subparagraphs (a)
 and (c) of the Commercial Computer Software - Restricted
 Rights clause in FAR 52.227-19.
  
 Gaussian, Inc.
 340 Quinnipiac St., Bldg. 40, Wallingford CT 06492
  
  
 ---------------------------------------------------------------
 Warning -- This program may not be used in any manner that
 competes with the business of Gaussian, Inc. or will provide
 assistance to any competitor of Gaussian, Inc.  The licensee
 of this program is prohibited from giving any competitor of
 Gaussian, Inc. access to this program.  By using this program,
 the user acknowledges that Gaussian, Inc. is engaged in the
 business of creating and licensing software in the field of
 computational chemistry and represents and warrants to the
 licensee that it is not a competitor of Gaussian, Inc. and that
 it will not use this program in any manner prohibited above.
 ---------------------------------------------------------------
  

 Cite this work as:
 Gaussian 16, Revision B.01,
 M. J. Frisch, G. W. Trucks, H. B. Schlegel, G. E. Scuseria, 
 M. A. Robb, J. R. Cheeseman, G. Scalmani, V. Barone, 
 G. A. Petersson, H. Nakatsuji, X. Li, M. Caricato, A. V. Marenich, 
 J. Bloino, B. G. Janesko, R. Gomperts, B. Mennucci, H. P. Hratchian, 
 J. V. Ortiz, A. F. Izmaylov, J. L. Sonnenberg, D. Williams-Young, 
 F. Ding, F. Lipparini, F. Egidi, J. Goings, B. Peng, A. Petrone, 
 T. Henderson, D. Ranasinghe, V. G. Zakrzewski, J. Gao, N. Rega, 
 G. Zheng, W. Liang, M. Hada, M. Ehara, K. Toyota, R. Fukuda, 
 J. Hasegawa, M. Ishida, T. Nakajima, Y. Honda, O. Kitao, H. Nakai, 
 T. Vreven, K. Throssell, J. A. Montgomery, Jr., J. E. Peralta, 
 F. Ogliaro, M. J. Bearpark, J. J. Heyd, E. N. Brothers, K. N. Kudin, 
 V. N. Staroverov, T. A. Keith, R. Kobayashi, J. Normand, 
 K. Raghavachari, A. P. Rendell, J. C. Burant, S. S. Iyengar, 
 J. Tomasi, M. Cossi, J. M. Millam, M. Klene, C. Adamo, R. Cammi, 
 J. W. Ochterski, R. L. Martin, K. Morokuma, O. Farkas, 
 J. B. Foresman, and D. J. Fox, Gaussian, Inc., Wallingford CT, 2016.
 
 ******************************************
 Gaussian 16:  ES64L-G16RevB.01 20-Dec-2017
                22-Nov-2022 
 ******************************************
 %nprocshared=50
 Will use up to   50 processors via shared memory.
 %mem=5GB
 %chk=Uracil6311-tddft.chk
 ---------------------------------------------------------
 #p freq td=(nstates=10) cam-b3lyp/6-311+G(d,p) symm=loose
 ---------------------------------------------------------
 1/10=4,30=1,38=1/1,3;
 2/12=2,17=4,18=3,40=1/2;
 3/5=4,6=6,7=111,11=9,25=1,30=1,71=2,74=-40,140=1/1,2,3,8;
 4//1;
 5/5=2,38=5,98=1/2;
 8/6=1,10=2,108=10/1;
 9/15=3,41=10,42=1,70=2/14;
 10/5=2004,20=4/2;
 11/6=1,8=1,12=-1,16=1,42=3/1,2,10;
 10/6=3,21=1/2,14;
 6/7=2,8=2,9=2,10=2/1;
 7/8=1,10=1,12=6,13=8,25=1,44=2/1,2,3,16;
 1/10=4,30=1/3;
 99//99;
 Leave Link    1 at Tue Nov 22 13:55:21 2022, MaxMem=   671088640 cpu:               1.7 elap:               0.0
 (Enter /shared/gaussian/g16.b01/AVX2/g16/l101.exe)
 ------------
 Uracil TDDFT
 ------------
 Symbolic Z-matrix:
 Charge =  0 Multiplicity = 1
 C                    -1.22827   0.36085   0. 
 C                     0.05585  -1.70024   0. 
 C                     1.23475  -1.065     0. 
 C                     1.27019   0.39091   0. 
 N                    -0.00036   0.98616   0. 
 H                    -0.02532  -2.77927   0. 
 H                     2.17307  -1.59667   0. 
 O                     2.26597   1.0768    0. 
 O                    -2.284     0.94628   0. 
 N                    -1.13665  -1.02137   0. 
 H                    -2.01858  -1.50972   0. 
 H                    -0.02256   1.99783   0. 
 
 ITRead=  0  0  0  0  0  0  0  0  0  0  0  0
 MicOpt= -1 -1 -1 -1 -1 -1 -1 -1 -1 -1 -1 -1
 NAtoms=     12 NQM=       12 NQMF=       0 NMMI=      0 NMMIF=      0
                NMic=       0 NMicF=      0.
                    Isotopes and Nuclear Properties:
 (Nuclear quadrupole moments (NQMom) in fm**2, nuclear magnetic moments (NMagM)
  in nuclear magnetons)

  Atom         1           2           3           4           5           6           7           8           9          10
 IAtWgt=          12          12          12          12          14           1           1          16          16          14
 AtmWgt=  12.0000000  12.0000000  12.0000000  12.0000000  14.0030740   1.0078250   1.0078250  15.9949146  15.9949146  14.0030740
 NucSpn=           0           0           0           0           2           1           1           0           0           2
 AtZEff=  -0.0000000  -0.0000000  -0.0000000  -0.0000000  -0.0000000  -0.0000000  -0.0000000  -0.0000000  -0.0000000  -0.0000000
 NQMom=    0.0000000   0.0000000   0.0000000   0.0000000   2.0440000   0.0000000   0.0000000   0.0000000   0.0000000   2.0440000
 NMagM=    0.0000000   0.0000000   0.0000000   0.0000000   0.4037610   2.7928460   2.7928460   0.0000000   0.0000000   0.4037610
 AtZNuc=   6.0000000   6.0000000   6.0000000   6.0000000   7.0000000   1.0000000   1.0000000   8.0000000   8.0000000   7.0000000

  Atom        11          12
 IAtWgt=           1           1
 AtmWgt=   1.0078250   1.0078250
 NucSpn=           1           1
 AtZEff=  -0.0000000  -0.0000000
 NQMom=    0.0000000   0.0000000
 NMagM=    2.7928460   2.7928460
 AtZNuc=   1.0000000   1.0000000
 Leave Link  101 at Tue Nov 22 13:55:21 2022, MaxMem=   671088640 cpu:               3.9 elap:               0.1
 (Enter /shared/gaussian/g16.b01/AVX2/g16/l103.exe)

 GradGradGradGradGradGradGradGradGradGradGradGradGradGradGradGradGradGrad
 Berny optimization.
 Initialization pass.
 Trust Radius=3.00D-01 FncErr=1.00D-07 GrdErr=1.00D-07 EigMax=2.50D+02 EigMin=1.00D-04
 Number of steps in this run=      2 maximum allowed number of steps=      2.
 GradGradGradGradGradGradGradGradGradGradGradGradGradGradGradGradGradGrad

 Leave Link  103 at Tue Nov 22 13:55:21 2022, MaxMem=   671088640 cpu:               0.7 elap:               0.0
 (Enter /shared/gaussian/g16.b01/AVX2/g16/l202.exe)
                          Input orientation:                          
 ---------------------------------------------------------------------
 Center     Atomic      Atomic             Coordinates (Angstroms)
 Number     Number       Type             X           Y           Z
 ---------------------------------------------------------------------
      1          6           0       -1.228274    0.360852    0.000000
      2          6           0        0.055847   -1.700239    0.000000
      3          6           0        1.234753   -1.065003    0.000000
      4          6           0        1.270191    0.390911    0.000000
      5          7           0       -0.000359    0.986164    0.000000
      6          1           0       -0.025317   -2.779266    0.000000
      7          1           0        2.173067   -1.596674    0.000000
      8          8           0        2.265971    1.076801    0.000000
      9          8           0       -2.283998    0.946280    0.000000
     10          7           0       -1.136647   -1.021375    0.000000
     11          1           0       -2.018580   -1.509722    0.000000
     12          1           0       -0.022563    1.997828    0.000000
 ---------------------------------------------------------------------
                    Distance matrix (angstroms):
                    1          2          3          4          5
     1  C    0.000000
     2  C    2.428387   0.000000
     3  C    2.845973   1.339158   0.000000
     4  C    2.498646   2.418169   1.456345   0.000000
     5  N    1.377966   2.686991   2.394324   1.403076   0.000000
     6  H    3.362655   1.082075   2.127551   3.424670   3.765513
     7  H    3.924414   2.119751   1.078474   2.183044   3.375623
     8  O    3.566838   3.549169   2.377127   1.209141   2.268142
     9  O    1.207178   3.532554   4.053007   3.597318   2.283987
    10  N    1.385261   1.372187   2.371801   2.790595   2.306808
    11  H    2.030672   2.083157   3.283588   3.798476   3.209776
    12  H    2.033084   3.698898   3.310857   2.062376   1.011908
                    6          7          8          9         10
     6  H    0.000000
     7  H    2.496280   0.000000
     8  O    4.485449   2.675089   0.000000
     9  O    4.356757   5.131476   4.551841   0.000000
    10  N    2.079720   3.359342   3.997518   2.277736   0.000000
    11  H    2.363226   4.192549   5.004746   2.470302   1.008111
    12  H    4.777095   4.212035   2.466917   2.493961   3.218194
                   11         12
    11  H    0.000000
    12  H    4.035714   0.000000
 Stoichiometry    C4H4N2O2
 Framework group  CS[SG(C4H4N2O2)]
 Deg. of freedom    21
 Full point group                 CS      NOp   2
 Largest Abelian subgroup         CS      NOp   2
 Largest concise Abelian subgroup C1      NOp   1
                         Standard orientation:                         
 ---------------------------------------------------------------------
 Center     Atomic      Atomic             Coordinates (Angstroms)
 Number     Number       Type             X           Y           Z
 ---------------------------------------------------------------------
      1          6           0       -1.228126    0.361792   -0.000000
      2          6           0        0.055301   -1.699731    0.000000
      3          6           0        1.234421   -1.064892    0.000000
      4          6           0        1.270349    0.391010    0.000000
      5          7           0       -0.000000    0.986691    0.000000
      6          1           0       -0.026226   -2.778731   -0.000000
      7          1           0        2.172556   -1.596879    0.000000
      8          8           0        2.266360    1.076564    0.000000
      9          8           0       -2.283652    0.947576   -0.000000
     10          7           0       -1.136964   -1.020466   -0.000000
     11          1           0       -2.019061   -1.508516   -0.000000
     12          1           0       -0.021863    1.998362   -0.000000
 ---------------------------------------------------------------------
 Rotational constants (GHZ):           3.9115689           2.0340469           1.3381818
 Leave Link  202 at Tue Nov 22 13:55:22 2022, MaxMem=   671088640 cpu:               0.3 elap:               0.0
 (Enter /shared/gaussian/g16.b01/AVX2/g16/l301.exe)
 Standard basis: 6-311+G(d,p) (5D, 7F)
 Ernie: Thresh=  0.10000D-02 Tol=  0.10000D-05 Strict=F.
 There are   156 symmetry adapted cartesian basis functions of A'  symmetry.
 There are    52 symmetry adapted cartesian basis functions of A"  symmetry.
 There are   148 symmetry adapted basis functions of A'  symmetry.
 There are    52 symmetry adapted basis functions of A"  symmetry.
   200 basis functions,   320 primitive gaussians,   208 cartesian basis functions
    29 alpha electrons       29 beta electrons
       nuclear repulsion energy       357.7652694771 Hartrees.
 IExCor=20419 DFT=T Ex+Corr=CAM-B3LYP ExCW=0 ScaHFX=  1.000000
 ScaDFX=  1.000000  1.000000  1.000000  0.810000 ScalE2=  1.000000  1.000000
 IRadAn=      5 IRanWt=     -1 IRanGd=            0 ICorTp=0 IEmpDi=  4
 HFx  wShort=  0.000000 wLong=  0.330000 cFull=  0.190000 cShort=  0.000000 cLong=  0.460000
 DFx  wShort=  0.000000 wLong=  0.330000 cFull=  0.190000 cShort=  0.000000 cLong=  0.460000
 NAtoms=   12 NActive=   12 NUniq=   12 SFac= 1.00D+00 NAtFMM=   60 NAOKFM=F Big=F
 Integral buffers will be    131072 words long.
 Raffenetti 1 integral format.
 Two-electron integral symmetry is turned on.
 Leave Link  301 at Tue Nov 22 13:55:22 2022, MaxMem=   671088640 cpu:               1.8 elap:               0.1
 (Enter /shared/gaussian/g16.b01/AVX2/g16/l302.exe)
 NPDir=0 NMtPBC=     1 NCelOv=     1 NCel=       1 NClECP=     1 NCelD=      1
         NCelK=      1 NCelE2=     1 NClLst=     1 CellRange=     0.0.
 One-electron integrals computed using PRISM.
 One-electron integral symmetry used in STVInt
 NBasis=   200 RedAO= T EigKep=  2.40D-05  NBF=   148    52
 NBsUse=   200 1.00D-06 EigRej= -1.00D+00 NBFU=   148    52
 Precomputing XC quadrature grid using
 IXCGrd= 4 IRadAn=           5 IRanWt=          -1 IRanGd=           0 AccXCQ= 0.00D+00.
 Generated NRdTot=       0 NPtTot=           0 NUsed=           0 NTot=          32
 NSgBfM=   208   208   208   208   208 MxSgAt=    12 MxSgA2=    12.
 Leave Link  302 at Tue Nov 22 13:55:22 2022, MaxMem=   671088640 cpu:               9.2 elap:               0.2
 (Enter /shared/gaussian/g16.b01/AVX2/g16/l303.exe)
 DipDrv:  MaxL=1.
 Leave Link  303 at Tue Nov 22 13:55:22 2022, MaxMem=   671088640 cpu:               1.0 elap:               0.0
 (Enter /shared/gaussian/g16.b01/AVX2/g16/l308.exe)
 Leave Link  308 at Tue Nov 22 13:55:22 2022, MaxMem=   671088640 cpu:               1.1 elap:               0.0
 (Enter /shared/gaussian/g16.b01/AVX2/g16/l401.exe)
 ExpMin= 4.38D-02 ExpMax= 8.59D+03 ExpMxC= 1.30D+03 IAcc=3 IRadAn=         5 AccDes= 0.00D+00
 Harris functional with IExCor=20419 and IRadAn=       5 diagonalized for initial guess.
 HarFok:  IExCor=20419 AccDes= 0.00D+00 IRadAn=         5 IDoV= 1 UseB2=F ITyADJ=14
 ICtDFT=  3500011 ScaDFX=  1.000000  1.000000  1.000000  1.000000
 FoFCou: FMM=F IPFlag=           0 FMFlag=      100000 FMFlg1=           0
         NFxFlg=           0 DoJE=T BraDBF=F KetDBF=T FulRan=T
         wScrn=  0.000000 ICntrl=       500 IOpCl=  0 I1Cent=   200000004 NGrid=           0
         NMat0=    1 NMatS0=      1 NMatT0=    0 NMatD0=    1 NMtDS0=    0 NMtDT0=    0
 Petite list used in FoFCou.
 Harris En= -400.142028921352    
 JPrj=0 DoOrth=F DoCkMO=F.
 Initial guess orbital symmetries:
       Occupied  (A') (A') (A') (A') (A') (A') (A') (A') (A') (A')
                 (A') (A') (A') (A') (A') (A') (A') (A') (A') (A')
                 (A") (A') (A') (A") (A") (A') (A") (A') (A")
       Virtual   (A') (A") (A') (A') (A") (A') (A') (A") (A') (A")
                 (A") (A') (A') (A") (A') (A') (A') (A') (A") (A')
                 (A") (A') (A') (A') (A') (A") (A') (A') (A") (A')
                 (A') (A') (A') (A') (A") (A') (A') (A') (A') (A')
                 (A') (A') (A') (A') (A') (A') (A") (A') (A') (A")
                 (A') (A") (A') (A") (A') (A') (A') (A') (A') (A')
                 (A') (A') (A') (A") (A') (A') (A") (A') (A') (A")
                 (A') (A") (A') (A") (A') (A") (A') (A') (A") (A')
                 (A') (A') (A") (A") (A") (A') (A') (A') (A') (A')
                 (A") (A') (A') (A") (A') (A") (A') (A') (A") (A')
                 (A') (A') (A') (A") (A') (A') (A') (A") (A') (A')
                 (A") (A') (A') (A") (A") (A') (A") (A') (A') (A')
                 (A') (A") (A') (A') (A") (A") (A") (A') (A') (A')
                 (A") (A') (A") (A') (A') (A') (A') (A") (A") (A')
                 (A') (A') (A') (A') (A') (A') (A') (A") (A') (A")
                 (A') (A') (A') (A') (A') (A') (A") (A") (A') (A')
                 (A') (A') (A') (A') (A') (A') (A') (A') (A') (A')
                 (A')
 The electronic state of the initial guess is 1-A'.
 Leave Link  401 at Tue Nov 22 13:55:22 2022, MaxMem=   671088640 cpu:              10.4 elap:               0.3
 (Enter /shared/gaussian/g16.b01/AVX2/g16/l502.exe)
 Keep R1 ints in memory in symmetry-blocked form, NReq=617182407.
 FoFCou: FMM=F IPFlag=           0 FMFlag=           0 FMFlg1=           0
         NFxFlg=           0 DoJE=F BraDBF=F KetDBF=F FulRan=T
         wScrn=  0.000000 ICntrl=       600 IOpCl=  0 I1Cent=           0 NGrid=           0
         NMat0=    1 NMatS0=  20100 NMatT0=    0 NMatD0=    1 NMtDS0=    0 NMtDT0=    0
 Petite list used in FoFCou.
 Closed shell SCF:
 Using DIIS extrapolation, IDIIS=  1040.
 NGot=   671088640 LenX=   564392544 LenY=   564348839
 Requested convergence on RMS density matrix=1.00D-08 within 128 cycles.
 Requested convergence on MAX density matrix=1.00D-06.
 Requested convergence on             energy=1.00D-06.
 No special actions if energy rises.

 Cycle   1  Pass 1  IDiag  1:
 E= -414.639856830948    
 DIIS: error= 6.66D-02 at cycle   1 NSaved=   1.
 NSaved= 1 IEnMin= 1 EnMin= -414.639856830948     IErMin= 1 ErrMin= 6.66D-02
 ErrMax= 6.66D-02  0.00D+00 EMaxC= 1.00D-01 BMatC= 6.95D-01 BMatP= 6.95D-01
 IDIUse=3 WtCom= 3.34D-01 WtEn= 6.66D-01
 Coeff-Com:  0.100D+01
 Coeff-En:   0.100D+01
 Coeff:      0.100D+01
 Gap=     0.311 Goal=   None    Shift=    0.000
 GapD=    0.311 DampG=1.000 DampE=0.500 DampFc=0.5000 IDamp=-1.
 Damping current iteration by 5.00D-01
 RMSDP=5.69D-03 MaxDP=4.31D-01              OVMax= 1.81D-01

 Cycle   2  Pass 1  IDiag  1:
 E= -414.697818750086     Delta-E=       -0.057961919138 Rises=F Damp=T
 DIIS: error= 3.17D-02 at cycle   2 NSaved=   2.
 NSaved= 2 IEnMin= 2 EnMin= -414.697818750086     IErMin= 2 ErrMin= 3.17D-02
 ErrMax= 3.17D-02  0.00D+00 EMaxC= 1.00D-01 BMatC= 1.43D-01 BMatP= 6.95D-01
 IDIUse=3 WtCom= 6.83D-01 WtEn= 3.17D-01
 Coeff-Com: -0.509D+00 0.151D+01
 Coeff-En:   0.000D+00 0.100D+01
 Coeff:     -0.347D+00 0.135D+01
 Gap=     0.337 Goal=   None    Shift=    0.000
 RMSDP=3.31D-03 MaxDP=3.23D-01 DE=-5.80D-02 OVMax= 1.52D-01

 Cycle   3  Pass 1  IDiag  1:
 E= -414.719417938630     Delta-E=       -0.021599188544 Rises=F Damp=F
 DIIS: error= 2.02D-02 at cycle   3 NSaved=   3.
 NSaved= 3 IEnMin= 3 EnMin= -414.719417938630     IErMin= 3 ErrMin= 2.02D-02
 ErrMax= 2.02D-02  0.00D+00 EMaxC= 1.00D-01 BMatC= 6.60D-02 BMatP= 1.43D-01
 IDIUse=3 WtCom= 7.98D-01 WtEn= 2.02D-01
 Coeff-Com: -0.358D+00 0.813D+00 0.545D+00
 Coeff-En:   0.000D+00 0.272D+00 0.728D+00
 Coeff:     -0.286D+00 0.703D+00 0.582D+00
 Gap=     0.313 Goal=   None    Shift=    0.000
 RMSDP=1.65D-03 MaxDP=6.97D-02 DE=-2.16D-02 OVMax= 8.17D-02

 Cycle   4  Pass 1  IDiag  1:
 E= -414.764308939257     Delta-E=       -0.044891000626 Rises=F Damp=F
 DIIS: error= 7.22D-03 at cycle   4 NSaved=   4.
 NSaved= 4 IEnMin= 4 EnMin= -414.764308939257     IErMin= 4 ErrMin= 7.22D-03
 ErrMax= 7.22D-03  0.00D+00 EMaxC= 1.00D-01 BMatC= 8.37D-03 BMatP= 6.60D-02
 IDIUse=3 WtCom= 9.28D-01 WtEn= 7.22D-02
 Coeff-Com: -0.144D+00 0.313D+00 0.345D+00 0.486D+00
 Coeff-En:   0.000D+00 0.000D+00 0.717D-01 0.928D+00
 Coeff:     -0.134D+00 0.290D+00 0.326D+00 0.518D+00
 Gap=     0.311 Goal=   None    Shift=    0.000
 RMSDP=8.25D-04 MaxDP=5.20D-02 DE=-4.49D-02 OVMax= 1.91D-02

 Cycle   5  Pass 1  IDiag  1:
 E= -414.769855609006     Delta-E=       -0.005546669749 Rises=F Damp=F
 DIIS: error= 1.51D-03 at cycle   5 NSaved=   5.
 NSaved= 5 IEnMin= 5 EnMin= -414.769855609006     IErMin= 5 ErrMin= 1.51D-03
 ErrMax= 1.51D-03  0.00D+00 EMaxC= 1.00D-01 BMatC= 2.64D-04 BMatP= 8.37D-03
 IDIUse=3 WtCom= 9.85D-01 WtEn= 1.51D-02
 Coeff-Com: -0.391D-01 0.833D-01 0.112D+00 0.258D+00 0.586D+00
 Coeff-En:   0.000D+00 0.000D+00 0.000D+00 0.000D+00 0.100D+01
 Coeff:     -0.385D-01 0.820D-01 0.111D+00 0.254D+00 0.592D+00
 Gap=     0.311 Goal=   None    Shift=    0.000
 RMSDP=1.01D-04 MaxDP=3.45D-03 DE=-5.55D-03 OVMax= 4.33D-03

 Cycle   6  Pass 1  IDiag  1:
 E= -414.770050686059     Delta-E=       -0.000195077053 Rises=F Damp=F
 DIIS: error= 3.94D-04 at cycle   6 NSaved=   6.
 NSaved= 6 IEnMin= 6 EnMin= -414.770050686059     IErMin= 6 ErrMin= 3.94D-04
 ErrMax= 3.94D-04  0.00D+00 EMaxC= 1.00D-01 BMatC= 1.48D-05 BMatP= 2.64D-04
 IDIUse=3 WtCom= 9.96D-01 WtEn= 3.94D-03
 Coeff-Com:  0.142D-01-0.311D-01-0.229D-01 0.752D-02 0.246D+00 0.786D+00
 Coeff-En:   0.000D+00 0.000D+00 0.000D+00 0.000D+00 0.000D+00 0.100D+01
 Coeff:      0.142D-01-0.310D-01-0.228D-01 0.749D-02 0.245D+00 0.787D+00
 Gap=     0.311 Goal=   None    Shift=    0.000
 RMSDP=8.32D-05 MaxDP=6.82D-03 DE=-1.95D-04 OVMax= 2.76D-03

 Cycle   7  Pass 1  IDiag  1:
 E= -414.770068910564     Delta-E=       -0.000018224505 Rises=F Damp=F
 DIIS: error= 1.43D-04 at cycle   7 NSaved=   7.
 NSaved= 7 IEnMin= 7 EnMin= -414.770068910564     IErMin= 7 ErrMin= 1.43D-04
 ErrMax= 1.43D-04  0.00D+00 EMaxC= 1.00D-01 BMatC= 2.51D-06 BMatP= 1.48D-05
 IDIUse=3 WtCom= 9.99D-01 WtEn= 1.43D-03
 Coeff-Com:  0.867D-02-0.187D-01-0.168D-01-0.199D-01 0.551D-01 0.347D+00
 Coeff-Com:  0.644D+00
 Coeff-En:   0.000D+00 0.000D+00 0.000D+00 0.000D+00 0.000D+00 0.000D+00
 Coeff-En:   0.100D+01
 Coeff:      0.866D-02-0.187D-01-0.168D-01-0.199D-01 0.550D-01 0.347D+00
 Coeff:      0.645D+00
 Gap=     0.311 Goal=   None    Shift=    0.000
 RMSDP=1.73D-05 MaxDP=1.09D-03 DE=-1.82D-05 OVMax= 6.26D-04

 Cycle   8  Pass 1  IDiag  1:
 E= -414.770071421589     Delta-E=       -0.000002511025 Rises=F Damp=F
 DIIS: error= 5.22D-05 at cycle   8 NSaved=   8.
 NSaved= 8 IEnMin= 8 EnMin= -414.770071421589     IErMin= 8 ErrMin= 5.22D-05
 ErrMax= 5.22D-05  0.00D+00 EMaxC= 1.00D-01 BMatC= 4.22D-07 BMatP= 2.51D-06
 IDIUse=1 WtCom= 1.00D+00 WtEn= 0.00D+00
 Coeff-Com:  0.141D-02-0.294D-02-0.361D-02-0.142D-01-0.277D-01 0.584D-02
 Coeff-Com:  0.281D+00 0.760D+00
 Coeff:      0.141D-02-0.294D-02-0.361D-02-0.142D-01-0.277D-01 0.584D-02
 Coeff:      0.281D+00 0.760D+00
 Gap=     0.311 Goal=   None    Shift=    0.000
 RMSDP=1.48D-05 MaxDP=1.07D-03 DE=-2.51D-06 OVMax= 2.80D-04

 Cycle   9  Pass 1  IDiag  1:
 E= -414.770071889916     Delta-E=       -0.000000468327 Rises=F Damp=F
 DIIS: error= 2.24D-05 at cycle   9 NSaved=   9.
 NSaved= 9 IEnMin= 9 EnMin= -414.770071889916     IErMin= 9 ErrMin= 2.24D-05
 ErrMax= 2.24D-05  0.00D+00 EMaxC= 1.00D-01 BMatC= 4.48D-08 BMatP= 4.22D-07
 IDIUse=1 WtCom= 1.00D+00 WtEn= 0.00D+00
 Coeff-Com: -0.499D-03 0.111D-02 0.727D-03-0.375D-02-0.186D-01-0.383D-01
 Coeff-Com:  0.421D-01 0.328D+00 0.689D+00
 Coeff:     -0.499D-03 0.111D-02 0.727D-03-0.375D-02-0.186D-01-0.383D-01
 Coeff:      0.421D-01 0.328D+00 0.689D+00
 Gap=     0.311 Goal=   None    Shift=    0.000
 RMSDP=2.17D-06 MaxDP=1.01D-04 DE=-4.68D-07 OVMax= 1.78D-04

 Cycle  10  Pass 1  IDiag  1:
 E= -414.770071940740     Delta-E=       -0.000000050823 Rises=F Damp=F
 DIIS: error= 7.61D-06 at cycle  10 NSaved=  10.
 NSaved=10 IEnMin=10 EnMin= -414.770071940740     IErMin=10 ErrMin= 7.61D-06
 ErrMax= 7.61D-06  0.00D+00 EMaxC= 1.00D-01 BMatC= 7.45D-09 BMatP= 4.48D-08
 IDIUse=1 WtCom= 1.00D+00 WtEn= 0.00D+00
 Coeff-Com: -0.421D-03 0.905D-03 0.919D-03 0.727D-03-0.348D-02-0.164D-01
 Coeff-Com: -0.276D-01 0.117D-01 0.319D+00 0.715D+00
 Coeff:     -0.421D-03 0.905D-03 0.919D-03 0.727D-03-0.348D-02-0.164D-01
 Coeff:     -0.276D-01 0.117D-01 0.319D+00 0.715D+00
 Gap=     0.311 Goal=   None    Shift=    0.000
 RMSDP=8.68D-07 MaxDP=2.91D-05 DE=-5.08D-08 OVMax= 3.37D-05

 Cycle  11  Pass 1  IDiag  1:
 E= -414.770071948677     Delta-E=       -0.000000007938 Rises=F Damp=F
 DIIS: error= 1.82D-06 at cycle  11 NSaved=  11.
 NSaved=11 IEnMin=11 EnMin= -414.770071948677     IErMin=11 ErrMin= 1.82D-06
 ErrMax= 1.82D-06  0.00D+00 EMaxC= 1.00D-01 BMatC= 3.97D-10 BMatP= 7.45D-09
 IDIUse=1 WtCom= 1.00D+00 WtEn= 0.00D+00
 Coeff-Com: -0.692D-04 0.147D-03 0.202D-03 0.470D-03 0.198D-03-0.218D-02
 Coeff-Com: -0.136D-01-0.224D-01 0.710D-01 0.229D+00 0.738D+00
 Coeff:     -0.692D-04 0.147D-03 0.202D-03 0.470D-03 0.198D-03-0.218D-02
 Coeff:     -0.136D-01-0.224D-01 0.710D-01 0.229D+00 0.738D+00
 Gap=     0.311 Goal=   None    Shift=    0.000
 RMSDP=2.01D-07 MaxDP=1.34D-05 DE=-7.94D-09 OVMax= 1.51D-05

 Cycle  12  Pass 1  IDiag  1:
 E= -414.770071949166     Delta-E=       -0.000000000489 Rises=F Damp=F
 DIIS: error= 7.79D-07 at cycle  12 NSaved=  12.
 NSaved=12 IEnMin=12 EnMin= -414.770071949166     IErMin=12 ErrMin= 7.79D-07
 ErrMax= 7.79D-07  0.00D+00 EMaxC= 1.00D-01 BMatC= 8.10D-11 BMatP= 3.97D-10
 IDIUse=1 WtCom= 1.00D+00 WtEn= 0.00D+00
 Coeff-Com:  0.238D-04-0.518D-04-0.235D-04 0.122D-03 0.582D-03 0.148D-02
 Coeff-Com: -0.215D-02-0.105D-01-0.155D-01-0.306D-01 0.297D+00 0.759D+00
 Coeff:      0.238D-04-0.518D-04-0.235D-04 0.122D-03 0.582D-03 0.148D-02
 Coeff:     -0.215D-02-0.105D-01-0.155D-01-0.306D-01 0.297D+00 0.759D+00
 Gap=     0.311 Goal=   None    Shift=    0.000
 RMSDP=8.87D-08 MaxDP=3.21D-06 DE=-4.89D-10 OVMax= 4.63D-06

 Cycle  13  Pass 1  IDiag  1:
 E= -414.770071949271     Delta-E=       -0.000000000105 Rises=F Damp=F
 DIIS: error= 1.85D-07 at cycle  13 NSaved=  13.
 NSaved=13 IEnMin=13 EnMin= -414.770071949271     IErMin=13 ErrMin= 1.85D-07
 ErrMax= 1.85D-07  0.00D+00 EMaxC= 1.00D-01 BMatC= 4.16D-12 BMatP= 8.10D-11
 IDIUse=1 WtCom= 1.00D+00 WtEn= 0.00D+00
 Coeff-Com:  0.818D-05-0.175D-04-0.161D-04-0.208D-04 0.687D-04 0.434D-03
 Coeff-Com:  0.707D-03 0.669D-03-0.825D-02-0.301D-01-0.120D-01 0.926D-01
 Coeff-Com:  0.956D+00
 Coeff:      0.818D-05-0.175D-04-0.161D-04-0.208D-04 0.687D-04 0.434D-03
 Coeff:      0.707D-03 0.669D-03-0.825D-02-0.301D-01-0.120D-01 0.926D-01
 Coeff:      0.956D+00
 Gap=     0.311 Goal=   None    Shift=    0.000
 RMSDP=2.23D-08 MaxDP=5.31D-07 DE=-1.05D-10 OVMax= 1.83D-06

 Cycle  14  Pass 1  IDiag  1:
 E= -414.770071949279     Delta-E=       -0.000000000008 Rises=F Damp=F
 DIIS: error= 9.83D-08 at cycle  14 NSaved=  14.
 NSaved=14 IEnMin=14 EnMin= -414.770071949279     IErMin=14 ErrMin= 9.83D-08
 ErrMax= 9.83D-08  0.00D+00 EMaxC= 1.00D-01 BMatC= 9.84D-13 BMatP= 4.16D-12
 IDIUse=1 WtCom= 1.00D+00 WtEn= 0.00D+00
 Coeff-Com:  0.245D-05-0.510D-05-0.745D-05-0.262D-04-0.400D-04 0.459D-04
 Coeff-Com:  0.538D-03 0.148D-02-0.175D-02-0.100D-01-0.321D-01-0.431D-01
 Coeff-Com:  0.414D+00 0.671D+00
 Coeff:      0.245D-05-0.510D-05-0.745D-05-0.262D-04-0.400D-04 0.459D-04
 Coeff:      0.538D-03 0.148D-02-0.175D-02-0.100D-01-0.321D-01-0.431D-01
 Coeff:      0.414D+00 0.671D+00
 Gap=     0.311 Goal=   None    Shift=    0.000
 RMSDP=8.40D-09 MaxDP=4.80D-07 DE=-8.30D-12 OVMax= 6.64D-07

 SCF Done:  E(RCAM-B3LYP) =  -414.770071949     A.U. after   14 cycles
            NFock= 14  Conv=0.84D-08     -V/T= 2.0029
 KE= 4.135610240307D+02 PE=-1.686277892391D+03 EE= 5.001815269335D+02
 Leave Link  502 at Tue Nov 22 13:55:26 2022, MaxMem=   671088640 cpu:             118.1 elap:               3.6
 (Enter /shared/gaussian/g16.b01/AVX2/g16/l801.exe)
 DoSCS=F DFT=T ScalE2(SS,OS)=  1.000000  1.000000
 ExpMin= 4.38D-02 ExpMax= 8.59D+03 ExpMxC= 1.30D+03 IAcc=3 IRadAn=         5 AccDes= 0.00D+00
 HarFok:  IExCor=  205 AccDes= 0.00D+00 IRadAn=         5 IDoV=-2 UseB2=F ITyADJ=14
 ICtDFT= 12500011 ScaDFX=  1.000000  1.000000  1.000000  1.000000
 Largest valence mixing into a core orbital is  4.79D-05
 Largest core mixing into a valence orbital is  1.09D-05
 Range of M.O.s used for correlation:     9   200
 NBasis=   200 NAE=    29 NBE=    29 NFC=     8 NFV=     0
 NROrb=    192 NOA=    21 NOB=    21 NVA=   171 NVB=   171

 **** Warning!!: The largest alpha MO coefficient is  0.84857461D+02

 Leave Link  801 at Tue Nov 22 13:55:26 2022, MaxMem=   671088640 cpu:               3.3 elap:               0.1
 (Enter /shared/gaussian/g16.b01/AVX2/g16/l914.exe)
 RHF ground state
 Two-electron integrals replicated using symmetry.
 MDV=   671088640 DFT=T DoStab=F Mixed=T DoRPA=T DoScal=F NonHer=T
 Making orbital integer symmetry assigments:
 Orbital symmetries:
       Occupied  (A') (A') (A') (A') (A') (A') (A') (A') (A') (A')
                 (A') (A') (A') (A') (A') (A') (A') (A') (A") (A')
                 (A') (A') (A') (A") (A") (A') (A") (A') (A")
       Virtual   (A") (A') (A') (A") (A') (A") (A') (A') (A') (A")
                 (A") (A') (A') (A") (A') (A') (A') (A') (A") (A')
                 (A") (A') (A') (A') (A') (A") (A') (A') (A') (A')
                 (A') (A") (A') (A') (A') (A') (A") (A') (A') (A')
                 (A') (A') (A') (A') (A') (A') (A') (A") (A') (A")
                 (A') (A") (A') (A") (A') (A') (A') (A') (A') (A')
                 (A') (A') (A') (A") (A') (A") (A') (A') (A') (A')
                 (A") (A") (A') (A') (A") (A") (A') (A") (A') (A")
                 (A') (A') (A") (A') (A") (A') (A') (A') (A') (A')
                 (A") (A') (A") (A') (A") (A') (A') (A') (A") (A')
                 (A') (A') (A') (A') (A") (A') (A') (A') (A") (A')
                 (A") (A') (A") (A') (A") (A') (A") (A') (A') (A')
                 (A') (A") (A') (A') (A") (A") (A') (A') (A") (A')
                 (A') (A") (A') (A") (A') (A') (A') (A") (A") (A')
                 (A') (A') (A') (A') (A') (A') (A') (A") (A') (A")
                 (A') (A') (A') (A') (A') (A') (A") (A") (A') (A')
                 (A') (A') (A') (A') (A') (A') (A') (A') (A') (A')
                 (A')
    40 initial guesses have been made.
 Convergence on wavefunction:    0.000001000000000
 Davidson Disk Diagonalization:  ConvIn= 1.00D-06 SkipCon=T Conv= 1.00D-06.
 Max sub-space:  2000 roots to seek:    40 dimension of matrix:         7182
 Iteration     1 Dimension    40 NMult     0 NNew     40
 CISAX will form    40 AO SS matrices at one time.
 NMat=    40 NSing=    40 JSym2X=-1.
 FoFJK:  IHMeth= 1 ICntrl=       0 DoSepK=T KAlg= 0 I1Cent=           0 FoldK=F
 IRaf=         1 NMat=      80 IRICut=       1 DoRegI=T DoRafI=F ISym2E=-1 IDoP0=3 IntGTp=3.
 FoFCou: FMM=F IPFlag=           0 FMFlag=      100000 FMFlg1=           0
         NFxFlg=           0 DoJE=F BraDBF=F KetDBF=F FulRan=T
         wScrn=  0.000000 ICntrl=       500 IOpCl=  0 I1Cent=           0 NGrid=           0
         NMat0=   40 NMatS0=     40 NMatT0=    0 NMatD0=   40 NMtDS0=    0 NMtDT0=    0
 Petite list used in FoFCou.
 New state      1 was old state      3
 New state      2 was old state      1
 New state      3 was old state      2
 New state      4 was old state     14
 New state      5 was old state      4
 New state      7 was old state      9
 New state      9 was old state      5
 New state     10 was old state     25
 Excitation Energies [eV] at current iteration:
 Root      1 :     5.334294234524189
 Root      2 :     6.209870395478820
 Root      3 :     6.320320631616657
 Root      4 :     6.724170697618189
 Root      5 :     7.072771406000272
 Root      6 :     7.283117407223222
 Root      7 :     7.297841347093985
 Root      8 :     7.382592028269947
 Root      9 :     7.417617410460815
 Root     10 :     7.658267412085332
 Root     11 :     7.680792601390842
 Root     12 :     7.780040028494589
 Root     13 :     7.887741846735602
 Root     14 :     7.940598618237627
 Root     15 :     8.102078862496638
 Root     16 :     8.268015504152965
 Root     17 :     8.314653910170042
 Root     18 :     8.448795762940721
 Root     19 :     8.481590436797461
 Root     20 :     8.730878708942663
 Root     21 :     8.766188412859050
 Root     22 :     8.820532804602230
 Root     23 :     8.842897584771812
 Root     24 :     8.981990867061381
 Root     25 :     9.051224743271179
 Root     26 :     9.109436979455085
 Root     27 :     9.206566649368353
 Root     28 :     9.209306092420908
 Root     29 :     9.399888575685175
 Root     30 :     9.439441050327810
 Root     31 :     9.511099435790634
 Root     32 :     9.594734275683185
 Root     33 :     9.605831124418158
 Root     34 :     9.727822194858499
 Root     35 :     9.736445754223045
 Root     36 :     9.882561961248614
 Root     37 :     9.887159858496890
 Root     38 :     9.913691953135569
 Root     39 :     9.986822970511096
 Root     40 :    10.072397341467440
 Iteration     2 Dimension    60 NMult    40 NNew     20
 CISAX will form    20 AO SS matrices at one time.
 NMat=    20 NSing=    20 JSym2X=-1.
 Root      1 not converged, maximum delta is    0.077350805785758
 Root      2 not converged, maximum delta is    0.073995585646970
 Root      3 not converged, maximum delta is    0.075461840851117
 Root      4 not converged, maximum delta is    0.106649969185040
 Root      5 not converged, maximum delta is    0.262017360392107
 New state      6 was old state      9
 Root      6 not converged, maximum delta is    0.380661987569391
 New state      7 was old state      6
 Root      7 not converged, maximum delta is    0.108300700579539
 New state      8 was old state      7
 Root      8 not converged, maximum delta is    0.098717551731647
 New state      9 was old state      8
 Root      9 not converged, maximum delta is    0.105240944298762
 Root     10 not converged, maximum delta is    0.117346808003757
 Excitation Energies [eV] at current iteration:
 Root      1 :     5.104801852683550   Change is   -0.229492381840640
 Root      2 :     5.568681178990699   Change is   -0.641189216488121
 Root      3 :     6.180332315145350   Change is   -0.139988316471307
 Root      4 :     6.384016258567021   Change is   -0.340154439051168
 Root      5 :     6.653243702648305   Change is   -0.419527703351967
 Root      6 :     6.961622351747764   Change is   -0.455995058713051
 Root      7 :     7.168379386623379   Change is   -0.114738020599843
 Root      8 :     7.184614275364393   Change is   -0.113227071729591
 Root      9 :     7.242095868244099   Change is   -0.140496160025848
 Root     10 :     7.379519129381319   Change is   -0.278748282704014
 Iteration     3 Dimension    80 NMult    60 NNew     20
 CISAX will form    20 AO SS matrices at one time.
 NMat=    20 NSing=    20 JSym2X=-1.
 Root      1 not converged, maximum delta is    0.005984221087305
 Root      2 not converged, maximum delta is    0.034877821829884
 Root      3 not converged, maximum delta is    0.003874781829075
 Root      4 not converged, maximum delta is    0.009139923761912
 Root      5 not converged, maximum delta is    0.057806629662317
 Root      6 not converged, maximum delta is    0.050443578660868
 Root      7 not converged, maximum delta is    0.102458924452374
 Root      8 not converged, maximum delta is    0.106009949663187
 Root      9 not converged, maximum delta is    0.018169618877934
 Root     10 not converged, maximum delta is    0.015944041170504
 Excitation Energies [eV] at current iteration:
 Root      1 :     5.099563243775531   Change is   -0.005238608908018
 Root      2 :     5.505964202075892   Change is   -0.062716976914807
 Root      3 :     6.178049578776187   Change is   -0.002282736369163
 Root      4 :     6.377928956081543   Change is   -0.006087302485478
 Root      5 :     6.619426488010774   Change is   -0.033817214637531
 Root      6 :     6.890665764776470   Change is   -0.070956586971294
 Root      7 :     7.165287178857882   Change is   -0.003092207765497
 Root      8 :     7.174253581441824   Change is   -0.010360693922569
 Root      9 :     7.237357731648387   Change is   -0.004738136595711
 Root     10 :     7.366865498930323   Change is   -0.012653630450995
 Iteration     4 Dimension   100 NMult    80 NNew     20
 CISAX will form    20 AO SS matrices at one time.
 NMat=    20 NSing=    20 JSym2X=-1.
 Root      1 not converged, maximum delta is    0.000797974913748
 Root      2 not converged, maximum delta is    0.003045256027619
 Root      3 not converged, maximum delta is    0.000667094058791
 Root      4 not converged, maximum delta is    0.001394232365640
 Root      5 not converged, maximum delta is    0.009364686436089
 Root      6 not converged, maximum delta is    0.008930891961107
 Root      7 not converged, maximum delta is    0.017834597528037
 Root      8 not converged, maximum delta is    0.018511641740844
 Root      9 not converged, maximum delta is    0.003674852764856
 Root     10 not converged, maximum delta is    0.002713891945795
 Excitation Energies [eV] at current iteration:
 Root      1 :     5.099450444737127   Change is   -0.000112799038404
 Root      2 :     5.501581964515997   Change is   -0.004382237559895
 Root      3 :     6.177984643519978   Change is   -0.000064935256208
 Root      4 :     6.377690182548114   Change is   -0.000238773533429
 Root      5 :     6.615732298272030   Change is   -0.003694189738744
 Root      6 :     6.882270041458534   Change is   -0.008395723317935
 Root      7 :     7.165026473789791   Change is   -0.000260705068091
 Root      8 :     7.173457517450681   Change is   -0.000796063991143
 Root      9 :     7.237039231462282   Change is   -0.000318500186106
 Root     10 :     7.366277440413673   Change is   -0.000588058516651
 Iteration     5 Dimension   120 NMult   100 NNew     20
 CISAX will form    20 AO SS matrices at one time.
 NMat=    20 NSing=    20 JSym2X=-1.
 Root      1 not converged, maximum delta is    0.000154322217010
 Root      2 not converged, maximum delta is    0.001108012162657
 Root      3 not converged, maximum delta is    0.000103647040623
 Root      4 not converged, maximum delta is    0.000423789609380
 Root      5 not converged, maximum delta is    0.001073907771644
 Root      6 not converged, maximum delta is    0.002394513241497
 Root      7 not converged, maximum delta is    0.000694440190767
 Root      8 not converged, maximum delta is    0.000725449195945
 Root      9 not converged, maximum delta is    0.000483227679669
 Root     10 not converged, maximum delta is    0.000875831133486
 Excitation Energies [eV] at current iteration:
 Root      1 :     5.099447324433608   Change is   -0.000003120303520
 Root      2 :     5.501198910969335   Change is   -0.000383053546661
 Root      3 :     6.177982676146502   Change is   -0.000001967373477
 Root      4 :     6.377678088240449   Change is   -0.000012094307665
 Root      5 :     6.615496253423969   Change is   -0.000236044848060
 Root      6 :     6.881435834631745   Change is   -0.000834206826789
 Root      7 :     7.165016172603161   Change is   -0.000010301186630
 Root      8 :     7.173423146307561   Change is   -0.000034371143120
 Root      9 :     7.237025324947879   Change is   -0.000013906514401
 Root     10 :     7.366239584982593   Change is   -0.000037855431080
 Iteration     6 Dimension   140 NMult   120 NNew     20
 CISAX will form    20 AO SS matrices at one time.
 NMat=    20 NSing=    20 JSym2X=-1.
 Root      1 not converged, maximum delta is    0.000014888798111
 Root      2 not converged, maximum delta is    0.000257225559267
 Root      3 not converged, maximum delta is    0.000024156960733
 Root      4 not converged, maximum delta is    0.000063190123909
 Root      5 not converged, maximum delta is    0.000210709561813
 Root      6 not converged, maximum delta is    0.000605902943063
 Root      7 not converged, maximum delta is    0.000074476597384
 Root      8 not converged, maximum delta is    0.000087805417613
 Root      9 not converged, maximum delta is    0.000104003824036
 Root     10 not converged, maximum delta is    0.000153814823113
 Excitation Energies [eV] at current iteration:
 Root      1 :     5.099447255188741   Change is   -0.000000069244867
 Root      2 :     5.501173096003325   Change is   -0.000025814966010
 Root      3 :     6.177982603902366   Change is   -0.000000072244136
 Root      4 :     6.377677710710576   Change is   -0.000000377529873
 Root      5 :     6.615481173205806   Change is   -0.000015080218163
 Root      6 :     6.881364053605805   Change is   -0.000071781025941
 Root      7 :     7.165015673712626   Change is   -0.000000498890534
 Root      8 :     7.173421485607006   Change is   -0.000001660700555
 Root      9 :     7.237024701973914   Change is   -0.000000622973966
 Root     10 :     7.366237420507603   Change is   -0.000002164474990
 Iteration     7 Dimension   160 NMult   140 NNew     20
 CISAX will form    20 AO SS matrices at one time.
 NMat=    20 NSing=    20 JSym2X=-1.
 Root      1 not converged, maximum delta is    0.000001777168418
 Root      2 not converged, maximum delta is    0.000051678677374
 Root      3 not converged, maximum delta is    0.000004215837509
 Root      4 not converged, maximum delta is    0.000008885857183
 Root      5 not converged, maximum delta is    0.000048199642256
 Root      6 not converged, maximum delta is    0.000166176757877
 Root      7 not converged, maximum delta is    0.000018335476087
 Root      8 not converged, maximum delta is    0.000026166772427
 Root      9 not converged, maximum delta is    0.000014239852409
 Root     10 not converged, maximum delta is    0.000037357462809
 Excitation Energies [eV] at current iteration:
 Root      1 :     5.099447253823464   Change is   -0.000000001365276
 Root      2 :     5.501171989127471   Change is   -0.000001106875854
 Root      3 :     6.177982601181778   Change is   -0.000000002720587
 Root      4 :     6.377677697350832   Change is   -0.000000013359745
 Root      5 :     6.615480439106068   Change is   -0.000000734099738
 Root      6 :     6.881360158048967   Change is   -0.000003895556837
 Root      7 :     7.165015646190080   Change is   -0.000000027522547
 Root      8 :     7.173421404670983   Change is   -0.000000080936023
 Root      9 :     7.237024677188801   Change is   -0.000000024785113
 Root     10 :     7.366237315129446   Change is   -0.000000105378158
 Iteration     8 Dimension   180 NMult   160 NNew     20
 CISAX will form    20 AO SS matrices at one time.
 NMat=    20 NSing=    20 JSym2X=-1.
 Root      1 has converged.
 Root      2 not converged, maximum delta is    0.000007485757213
 Root      3 has converged.
 Root      4 has converged.
 Root      5 not converged, maximum delta is    0.000022926774922
 Root      6 not converged, maximum delta is    0.000045045098090
 Root      7 not converged, maximum delta is    0.000002875346924
 Root      8 not converged, maximum delta is    0.000003125803416
 Root      9 not converged, maximum delta is    0.000002199412579
 No map to state     10
 Excitation Energies [eV] at current iteration:
 Root      1 :     5.099447253795237   Change is   -0.000000000028227
 Root      2 :     5.501171956655187   Change is   -0.000000032472283
 Root      3 :     6.177982601100343   Change is   -0.000000000081435
 Root      4 :     6.377677696889038   Change is   -0.000000000461793
 Root      5 :     6.615480400335346   Change is   -0.000000038770722
 Root      6 :     6.881359930230051   Change is   -0.000000227818916
 Root      7 :     7.165015644971175   Change is   -0.000000001218905
 Root      8 :     7.173421401355372   Change is   -0.000000003315611
 Root      9 :     7.237024676155105   Change is   -0.000000001033696
 Root     10 :     7.364658456540309
 Iteration     9 Dimension   194 NMult   180 NNew     14
 CISAX will form    14 AO SS matrices at one time.
 NMat=    14 NSing=    14 JSym2X=-1.
 Root      1 has converged.
 Root      2 not converged, maximum delta is    0.000001361881631
 Root      3 has converged.
 Root      4 has converged.
 Root      5 not converged, maximum delta is    0.000005797208186
 Root      6 not converged, maximum delta is    0.000012125409533
 Root      7 has converged.
 Root      8 has converged.
 Root      9 has converged.
 Root     10 not converged, maximum delta is    0.010910153609198
 Excitation Energies [eV] at current iteration:
 Root      1 :     5.099447253795124   Change is   -0.000000000000113
 Root      2 :     5.501171955595743   Change is   -0.000000001059444
 Root      3 :     6.177982601099757   Change is   -0.000000000000586
 Root      4 :     6.377677696886202   Change is   -0.000000000002836
 Root      5 :     6.615480397863347   Change is   -0.000000002471999
 Root      6 :     6.881359916394920   Change is   -0.000000013835132
 Root      7 :     7.165015644921564   Change is   -0.000000000049611
 Root      8 :     7.173421401205648   Change is   -0.000000000149724
 Root      9 :     7.237024676108962   Change is   -0.000000000046142
 Root     10 :     7.352301367758356   Change is   -0.012357088781953
 Iteration    10 Dimension   202 NMult   194 NNew      8
 CISAX will form     8 AO SS matrices at one time.
 NMat=     8 NSing=     8 JSym2X=-1.
 Root      1 has converged.
 Root      2 has converged.
 Root      3 has converged.
 Root      4 has converged.
 Root      5 has converged.
 Root      6 not converged, maximum delta is    0.000001914567915
 Root      7 has converged.
 Root      8 has converged.
 Root      9 has converged.
 Root     10 not converged, maximum delta is    0.002133346223629
 Excitation Energies [eV] at current iteration:
 Root      1 :     5.099447253795124   Change is    0.000000000000000
 Root      2 :     5.501171955565243   Change is   -0.000000000030500
 Root      3 :     6.177982601099797   Change is    0.000000000000040
 Root      4 :     6.377677696886151   Change is   -0.000000000000051
 Root      5 :     6.615480397728929   Change is   -0.000000000134418
 Root      6 :     6.881359915639572   Change is   -0.000000000755348
 Root      7 :     7.165015644921540   Change is   -0.000000000000024
 Root      8 :     7.173421401205693   Change is    0.000000000000045
 Root      9 :     7.237024676108986   Change is    0.000000000000023
 Root     10 :     7.351706791973355   Change is   -0.000594575785000
 Iteration    11 Dimension   206 NMult   202 NNew      4
 CISAX will form     4 AO SS matrices at one time.
 NMat=     4 NSing=     4 JSym2X=-1.
 Root      1 has converged.
 Root      2 has converged.
 Root      3 has converged.
 Root      4 has converged.
 Root      5 has converged.
 Root      6 has converged.
 Root      7 has converged.
 Root      8 has converged.
 Root      9 has converged.
 Root     10 not converged, maximum delta is    0.000345795105610
 Excitation Energies [eV] at current iteration:
 Root      1 :     5.099447253795124   Change is    0.000000000000000
 Root      2 :     5.501171955565065   Change is   -0.000000000000179
 Root      3 :     6.177982601099771   Change is   -0.000000000000026
 Root      4 :     6.377677696886099   Change is   -0.000000000000052
 Root      5 :     6.615480397726158   Change is   -0.000000000002771
 Root      6 :     6.881359915604677   Change is   -0.000000000034895
 Root      7 :     7.165015644921564   Change is    0.000000000000024
 Root      8 :     7.173421401205670   Change is   -0.000000000000023
 Root      9 :     7.237024676108997   Change is    0.000000000000012
 Root     10 :     7.351680680096174   Change is   -0.000026111877181
 Iteration    12 Dimension   208 NMult   206 NNew      2
 CISAX will form     2 AO SS matrices at one time.
 NMat=     2 NSing=     2 JSym2X=-1.
 Root      1 has converged.
 Root      2 has converged.
 Root      3 has converged.
 Root      4 has converged.
 Root      5 has converged.
 Root      6 has converged.
 Root      7 has converged.
 Root      8 has converged.
 Root      9 has converged.
 Root     10 not converged, maximum delta is    0.000054013638571
 Excitation Energies [eV] at current iteration:
 Root      1 :     5.099447253795059   Change is   -0.000000000000064
 Root      2 :     5.501171955565034   Change is   -0.000000000000030
 Root      3 :     6.177982601099757   Change is   -0.000000000000014
 Root      4 :     6.377677696886099   Change is    0.000000000000000
 Root      5 :     6.615480397726022   Change is   -0.000000000000137
 Root      6 :     6.881359915604714   Change is    0.000000000000036
 Root      7 :     7.165015644921552   Change is   -0.000000000000012
 Root      8 :     7.173421401205590   Change is   -0.000000000000080
 Root      9 :     7.237024676109020   Change is    0.000000000000023
 Root     10 :     7.351679347762979   Change is   -0.000001332333195
 Iteration    13 Dimension   210 NMult   208 NNew      2
 CISAX will form     2 AO SS matrices at one time.
 NMat=     2 NSing=     2 JSym2X=-1.
 Root      1 has converged.
 Root      2 has converged.
 Root      3 has converged.
 Root      4 has converged.
 Root      5 has converged.
 Root      6 has converged.
 Root      7 has converged.
 Root      8 has converged.
 Root      9 has converged.
 Root     10 not converged, maximum delta is    0.000012650802273
 Excitation Energies [eV] at current iteration:
 Root      1 :     5.099447253795124   Change is    0.000000000000064
 Root      2 :     5.501171955565109   Change is    0.000000000000075
 Root      3 :     6.177982601099784   Change is    0.000000000000027
 Root      4 :     6.377677696886086   Change is   -0.000000000000013
 Root      5 :     6.615480397726022   Change is    0.000000000000000
 Root      6 :     6.881359915604714   Change is    0.000000000000000
 Root      7 :     7.165015644921552   Change is    0.000000000000000
 Root      8 :     7.173421401205578   Change is   -0.000000000000012
 Root      9 :     7.237024676108997   Change is   -0.000000000000023
 Root     10 :     7.351679267080991   Change is   -0.000000080681988
 Iteration    14 Dimension   212 NMult   210 NNew      2
 CISAX will form     2 AO SS matrices at one time.
 NMat=     2 NSing=     2 JSym2X=-1.
 Root      1 has converged.
 Root      2 has converged.
 Root      3 has converged.
 Root      4 has converged.
 Root      5 has converged.
 Root      6 has converged.
 Root      7 has converged.
 Root      8 has converged.
 Root      9 has converged.
 Root     10 not converged, maximum delta is    0.000002515346844
 Excitation Energies [eV] at current iteration:
 Root      1 :     5.099447253795092   Change is   -0.000000000000032
 Root      2 :     5.501171955565080   Change is   -0.000000000000029
 Root      3 :     6.177982601099784   Change is    0.000000000000000
 Root      4 :     6.377677696886099   Change is    0.000000000000013
 Root      5 :     6.615480397726047   Change is    0.000000000000025
 Root      6 :     6.881359915604738   Change is    0.000000000000024
 Root      7 :     7.165015644921574   Change is    0.000000000000023
 Root      8 :     7.173421401205635   Change is    0.000000000000057
 Root      9 :     7.237024676108962   Change is   -0.000000000000035
 Root     10 :     7.351679262541410   Change is   -0.000000004539582
 Iteration    15 Dimension   214 NMult   212 NNew      2
 CISAX will form     2 AO SS matrices at one time.
 NMat=     2 NSing=     2 JSym2X=-1.
 Root      1 has converged.
 Root      2 has converged.
 Root      3 has converged.
 Root      4 has converged.
 Root      5 has converged.
 Root      6 has converged.
 Root      7 has converged.
 Root      8 has converged.
 Root      9 has converged.
 Root     10 has converged.
 Excitation Energies [eV] at current iteration:
 Root      1 :     5.099447253795108   Change is    0.000000000000016
 Root      2 :     5.501171955565050   Change is   -0.000000000000030
 Root      3 :     6.177982601099811   Change is    0.000000000000026
 Root      4 :     6.377677696886202   Change is    0.000000000000103
 Root      5 :     6.615480397725997   Change is   -0.000000000000050
 Root      6 :     6.881359915604714   Change is   -0.000000000000024
 Root      7 :     7.165015644921564   Change is   -0.000000000000011
 Root      8 :     7.173421401205648   Change is    0.000000000000012
 Root      9 :     7.237024676109053   Change is    0.000000000000091
 Root     10 :     7.351679262258625   Change is   -0.000000000282784
 Convergence achieved on expansion vectors.
 ***********************************************************************
 Excited states from <AA,BB:AA,BB> singles matrix:
 ***********************************************************************
 
 1PDM for each excited state written to RWF  633
 Ground to excited state transition densities written to RWF  633
 Ground to excited state transition electric dipole moments (Au):
       state          X           Y           Z        Dip. S.      Osc.
         1         0.0000     -0.0000      0.0044      0.0000      0.0000
         2        -1.0929     -0.4663      0.0000      1.4118      0.1903
         3        -0.0000     -0.0000     -0.1446      0.0209      0.0032
         4        -0.0000      0.0000     -0.0053      0.0000      0.0000
         5         0.5270      0.0366      0.0000      0.2790      0.0452
         6         0.3182     -0.9465     -0.0000      0.9971      0.1681
         7        -0.0000     -0.0000      0.0636      0.0040      0.0007
         8         0.0000     -0.0000     -0.0336      0.0011      0.0002
         9         0.0000      0.0000     -0.3276      0.1073      0.0190
        10        -0.2723     -0.0944     -0.0000      0.0831      0.0150
 Ground to excited state transition velocity dipole moments (Au):
       state          X           Y           Z        Dip. S.      Osc.
         1         0.0000      0.0000     -0.0060      0.0000      0.0001
         2         0.2268      0.0925     -0.0000      0.0600      0.1979
         3         0.0000      0.0000      0.0331      0.0011      0.0032
         4         0.0000      0.0000      0.0028      0.0000      0.0000
         5        -0.1243     -0.0071      0.0000      0.0155      0.0425
         6        -0.0844      0.2346     -0.0000      0.0621      0.1638
         7         0.0000      0.0000     -0.0096      0.0001      0.0002
         8         0.0000      0.0000      0.0206      0.0004      0.0011
         9         0.0000     -0.0000      0.0890      0.0079      0.0199
        10         0.0764      0.0247      0.0000      0.0064      0.0159
 Ground to excited state transition magnetic dipole moments (Au):
       state          X           Y           Z
         1         0.5538      0.5049      0.0000
         2         0.0000     -0.0000      1.6289
         3        -0.1746     -0.3119      0.0000
         4         0.7363     -0.3588     -0.0000
         5         0.0000     -0.0000     -0.1638
         6        -0.0000     -0.0000     -0.3959
         7         0.2489     -0.0080     -0.0000
         8         0.2707      0.0644      0.0000
         9        -0.5110     -0.1059      0.0000
        10        -0.0000      0.0000     -0.7236
 Ground to excited state transition velocity quadrupole moments (Au):
       state          XX          YY          ZZ          XY          XZ          YZ
         1         0.0000     -0.0000      0.0000     -0.0000     -0.0459      0.0230
         2         0.3393     -0.2831      0.0111     -0.0150      0.0000      0.0000
         3         0.0000      0.0000      0.0000      0.0000      0.1941     -0.1286
         4        -0.0000      0.0000     -0.0000      0.0000      0.0274      0.0418
         5        -0.5763     -0.0552      0.0163     -0.2969      0.0000      0.0000
         6         0.7202     -0.1763     -0.1412      0.1512      0.0000      0.0000
         7        -0.0000     -0.0000     -0.0000      0.0000      0.0651     -0.0637
         8         0.0000     -0.0000     -0.0000      0.0000     -0.0143     -0.0241
         9        -0.0000     -0.0000      0.0000     -0.0000      0.1541     -0.4501
        10         0.2862     -0.2125     -0.0755     -0.3767      0.0000     -0.0000
 <0|del|b> * <b|rxdel|0> + <0|del|b> * <b|delr+rdel|0>
 Rotatory Strengths (R) in cgs (10**-40 erg-esu-cm/Gauss)
       state          XX          YY          ZZ    R(velocity)    E-M Angle
         1         0.0000     -0.0000      0.0000      0.0000       90.00
         2        -0.0000     -0.0000     -0.0000     -0.0000       90.00
         3         0.0000      0.0000     -0.0000      0.0000       90.00
         4        -0.0000      0.0000      0.0000      0.0000       90.00
         5        -0.0000     -0.0000      0.0000     -0.0000       90.00
         6        -0.0000      0.0000     -0.0000     -0.0000       90.00
         7        -0.0000      0.0000      0.0000      0.0000       90.00
         8         0.0000      0.0000      0.0000      0.0000       90.00
         9         0.0000      0.0000     -0.0000      0.0000       90.00
        10        -0.0000     -0.0000      0.0000     -0.0000       90.00
 1/2[<0|r|b>*<b|rxdel|0> + (<0|rxdel|b>*<b|r|0>)*]
 Rotatory Strengths (R) in cgs (10**-40 erg-esu-cm/Gauss)
       state          XX          YY          ZZ     R(length)
         1        -0.0000      0.0000     -0.0000      0.0000
         2         0.0000     -0.0000     -0.0000     -0.0000
         3        -0.0000     -0.0000      0.0000      0.0000
         4         0.0000      0.0000     -0.0000      0.0000
         5        -0.0000      0.0000      0.0000     -0.0000
         6         0.0000     -0.0000     -0.0000     -0.0000
         7         0.0000     -0.0000      0.0000      0.0000
         8        -0.0000      0.0000      0.0000      0.0000
         9         0.0000      0.0000      0.0000      0.0000
        10        -0.0000      0.0000     -0.0000     -0.0000
  1/2[<0|del|b>*<b|r|0> + (<0|r|b>*<b|del|0>)*] (Au)
       state          X           Y           Z        Dip. S.   Osc.(frdel)
         1         0.0000     -0.0000     -0.0000      0.0000      0.0000
         2        -0.2479     -0.0431     -0.0000      0.2910      0.1940
         3        -0.0000     -0.0000     -0.0048      0.0048      0.0032
         4        -0.0000      0.0000     -0.0000      0.0000      0.0000
         5        -0.0655     -0.0003      0.0000      0.0658      0.0439
         6        -0.0268     -0.2220      0.0000      0.2489      0.1659
         7        -0.0000     -0.0000     -0.0006      0.0006      0.0004
         8         0.0000     -0.0000     -0.0007      0.0007      0.0005
         9         0.0000     -0.0000     -0.0292      0.0292      0.0194
        10        -0.0208     -0.0023     -0.0000      0.0231      0.0154

 Excitation energies and oscillator strengths:
 
 Excited State   1:      Singlet-A"     5.0994 eV  243.13 nm  f=0.0000  <S**2>=0.000
      26 -> 30        -0.16651
      28 -> 30         0.63343
      28 -> 33         0.21125
 This state for optimization and/or second-order correction.
 Total Energy, E(TD-HF/TD-DFT) =  -414.582670711    
 Copying the excited state density for this state as the 1-particle RhoCI density.
 
 Excited State   2:      Singlet-A'     5.5012 eV  225.38 nm  f=0.1903  <S**2>=0.000
      27 -> 33         0.10965
      29 -> 30         0.68613
 
 Excited State   3:      Singlet-A"     6.1780 eV  200.69 nm  f=0.0032  <S**2>=0.000
      29 -> 31         0.69087
 
 Excited State   4:      Singlet-A"     6.3777 eV  194.40 nm  f=0.0000  <S**2>=0.000
      26 -> 30        -0.30292
      26 -> 33         0.39873
      26 -> 40        -0.11053
      28 -> 30        -0.17789
      28 -> 33         0.42544
 
 Excited State   5:      Singlet-A'     6.6155 eV  187.42 nm  f=0.0452  <S**2>=0.000
      27 -> 30         0.69221
 
 Excited State   6:      Singlet-A'     6.8814 eV  180.17 nm  f=0.1681  <S**2>=0.000
      29 -> 33         0.68852
 
 Excited State   7:      Singlet-A"     7.1650 eV  173.04 nm  f=0.0007  <S**2>=0.000
      26 -> 30         0.27033
      28 -> 33         0.14680
      29 -> 32         0.54720
      29 -> 34         0.21514
      29 -> 36        -0.11739
      29 -> 38        -0.10921
 
 Excited State   8:      Singlet-A"     7.1734 eV  172.84 nm  f=0.0002  <S**2>=0.000
      26 -> 30         0.51931
      28 -> 33         0.28437
      29 -> 32        -0.32570
 
 Excited State   9:      Singlet-A"     7.2370 eV  171.32 nm  f=0.0190  <S**2>=0.000
      26 -> 30        -0.13389
      27 -> 31        -0.11308
      29 -> 32        -0.15687
      29 -> 34         0.63731
 
 Excited State  10:      Singlet-A'     7.3517 eV  168.65 nm  f=0.0150  <S**2>=0.000
      26 -> 31         0.12618
      26 -> 34        -0.10709
      28 -> 31         0.51411
      28 -> 32        -0.40145
      28 -> 34         0.10029
 SavETr:  write IOETrn=   770 NScale= 10 NData=  16 NLR=1 NState=   10 LETran=     190.
 The selected state is a singlet.
 CISGrd: IGrad=3 NXY=2 DFT=T
 CISAX will form     1 AO SS matrices at one time.
 NMat=     1 NSing=     1 JSym2X=-1.
 Leave Link  914 at Tue Nov 22 13:55:58 2022, MaxMem=   671088640 cpu:            1588.2 elap:              31.8
 (Enter /shared/gaussian/g16.b01/AVX2/g16/l1002.exe)
 Minotr:  Closed shell wavefunction.
          Computing CIS/TDA/TD derivatives.
          Using Z-Vector for PSCF gradient.
          Skipping F1 and S1 gradient terms here.
          IDoAtm=111111111111
          Frozen-core window.
          Direct CPHF calculation.
          Differentiating once with respect to electric field.
                with respect to dipole field.
          Differentiating once with respect to nuclear coordinates.
          Requested convergence is 1.0D-10 RMS, and 1.0D-09 maximum.
          NewPWx=F KeepS1=T KeepF1=T KeepIn=T MapXYZ=F SortEE=F KeepMc=T.
 Keep R1 ints in memory in symmetry-blocked form, NReq=617184223.
 FoFCou: FMM=F IPFlag=           0 FMFlag=           0 FMFlg1=           0
         NFxFlg=           0 DoJE=F BraDBF=F KetDBF=F FulRan=T
         wScrn=  0.000000 ICntrl=       600 IOpCl=  0 I1Cent=           0 NGrid=           0
         NMat0=    1 NMatS0=  20100 NMatT0=    0 NMatD0=    1 NMtDS0=    0 NMtDT0=    0
 Petite list used in FoFCou.
 Two-electron integral symmetry used by symmetrizing perturbed Fock matrices.
          MDV=     671088640 using IRadAn=       5.
          Solving linear equations separately, MaxMat=       0.
          There are     1 degrees of freedom in the 1st order CPHF.  IDoFFX=0 NUNeed=     1.
 LinEq1:  Iter=  0 NonCon=     1 RMS=1.85D-02 Max=4.94D-01 NDo=     1
 AX will form     1 AO Fock derivatives at one time.
 LinEq1:  Iter=  1 NonCon=     1 RMS=5.24D-03 Max=1.17D-01 NDo=     1
 LinEq1:  Iter=  2 NonCon=     1 RMS=3.66D-03 Max=7.92D-02 NDo=     1
 LinEq1:  Iter=  3 NonCon=     1 RMS=1.54D-03 Max=4.23D-02 NDo=     1
 LinEq1:  Iter=  4 NonCon=     1 RMS=1.02D-03 Max=2.70D-02 NDo=     1
 LinEq1:  Iter=  5 NonCon=     1 RMS=3.79D-04 Max=7.57D-03 NDo=     1
 LinEq1:  Iter=  6 NonCon=     1 RMS=2.44D-04 Max=5.45D-03 NDo=     1
 LinEq1:  Iter=  7 NonCon=     1 RMS=9.47D-05 Max=2.25D-03 NDo=     1
 LinEq1:  Iter=  8 NonCon=     1 RMS=3.61D-05 Max=8.50D-04 NDo=     1
 LinEq1:  Iter=  9 NonCon=     1 RMS=1.75D-05 Max=5.58D-04 NDo=     1
 LinEq1:  Iter= 10 NonCon=     1 RMS=6.15D-06 Max=1.24D-04 NDo=     1
 LinEq1:  Iter= 11 NonCon=     1 RMS=3.14D-06 Max=7.37D-05 NDo=     1
 LinEq1:  Iter= 12 NonCon=     1 RMS=8.34D-07 Max=1.27D-05 NDo=     1
 LinEq1:  Iter= 13 NonCon=     1 RMS=3.22D-07 Max=5.85D-06 NDo=     1
 LinEq1:  Iter= 14 NonCon=     1 RMS=1.27D-07 Max=2.21D-06 NDo=     1
 LinEq1:  Iter= 15 NonCon=     1 RMS=3.30D-08 Max=5.88D-07 NDo=     1
 LinEq1:  Iter= 16 NonCon=     1 RMS=1.38D-08 Max=2.56D-07 NDo=     1
 LinEq1:  Iter= 17 NonCon=     1 RMS=2.52D-09 Max=2.65D-08 NDo=     1
 LinEq1:  Iter= 18 NonCon=     1 RMS=4.81D-10 Max=7.54D-09 NDo=     1
 LinEq1:  Iter= 19 NonCon=     1 RMS=7.93D-11 Max=1.43D-09 NDo=     1
 LinEq1:  Iter= 20 NonCon=     0 RMS=1.65D-11 Max=3.63D-10 NDo=     1
 Linear equations converged to 1.000D-10 1.000D-09 after    20 iterations.
          There are     1 degrees of freedom in the 1st order CPHF.  IDoFFX=0 NUNeed=     1.
 End of Minotr F.D. properties file   721 does not exist.
 End of Minotr F.D. properties file   722 does not exist.
 End of Minotr F.D. properties file   788 does not exist.
 Leave Link 1002 at Tue Nov 22 13:56:03 2022, MaxMem=   671088640 cpu:             149.9 elap:               5.3
 (Enter /shared/gaussian/g16.b01/AVX2/g16/l1101.exe)
 Using compressed Sx but separate Hx and Fx, NAtomX=    12.
 Will process     13 centers per pass.
 Leave Link 1101 at Tue Nov 22 13:56:03 2022, MaxMem=   671088640 cpu:               9.3 elap:               0.2
 (Enter /shared/gaussian/g16.b01/AVX2/g16/l1102.exe)
 Use density number 6.
 Symmetrizing basis deriv contribution to polar:
 IMax=3 JMax=2 DiffMx= 0.00D+00
 Leave Link 1102 at Tue Nov 22 13:56:03 2022, MaxMem=   671088640 cpu:               0.8 elap:               0.0
 (Enter /shared/gaussian/g16.b01/AVX2/g16/l1110.exe)
 Forming Gx(P) for the SCF density, NAtomX=    12.
 Integral derivatives from FoFJK, PRISM(SPDF).
 Do as many integral derivatives as possible in FoFJK.
 G2DrvN: MDV=     671087568.
 G2DrvN: will do    13 centers at a time, making    1 passes.
 Calling FoFCou, ICntrl=  3107 FMM=F I1Cent=   0 AccDes= 0.00D+00.
 FoFJK:  IHMeth= 1 ICntrl=    3107 DoSepK=T KAlg= 0 I1Cent=           0 FoldK=F
 IRaf=         1 NMat=       1 IRICut=       1 DoRegI=T DoRafI=F ISym2E= 1 IDoP0=0 IntGTp=1.
 FoFCou: FMM=F IPFlag=           0 FMFlag=      100000 FMFlg1=           0
         NFxFlg=           0 DoJE=F BraDBF=F KetDBF=F FulRan=T
         wScrn=  0.000000 ICntrl=      3507 IOpCl=  0 I1Cent=           0 NGrid=           0
         NMat0=    1 NMatS0=      1 NMatT0=    0 NMatD0=    1 NMtDS0=    0 NMtDT0=    0
 Petite list used in FoFCou.
 Forming Gx(P) for generalized density number  6 NAtomX=    12.
 Integral derivatives from FoFJK, PRISM(SPDF).
 Do as many integral derivatives as possible in FoFJK.
 G2DrvN: MDV=     671087568.
 G2DrvN: will do    13 centers at a time, making    1 passes.
 Calling FoFCou, ICntrl=  3107 FMM=F I1Cent=   0 AccDes= 0.00D+00.
 Forming Gx(T) for CIS/TDA/TD state  1 NAtomX=    12.
 Integral derivatives from FoFJK, PRISM(SPDF).
 Do as many integral derivatives as possible in FoFJK.
 G2DrvN: MDV=     671087568.
 G2DrvN: will do    13 centers at a time, making    1 passes.
 Calling FoFCou, ICntrl=  3107 FMM=F I1Cent=   0 AccDes= 0.00D+00.
 End of G2Drv F.D. properties file   721 does not exist.
 End of G2Drv F.D. properties file   722 does not exist.
 End of G2Drv F.D. properties file   788 does not exist.
 Leave Link 1110 at Tue Nov 22 13:56:11 2022, MaxMem=   671088640 cpu:             355.9 elap:               7.2
 (Enter /shared/gaussian/g16.b01/AVX2/g16/l1002.exe)
 Minotr:  Closed shell wavefunction.
          IDoAtm=111111111111
          Frozen-core window.
          Direct CPHF calculation.
          Differentiating once with respect to electric field.
                with respect to dipole field.
          Differentiating once with respect to nuclear coordinates.
          Requested convergence is 1.0D-08 RMS, and 1.0D-07 maximum.
          Secondary convergence is 1.0D-12 RMS, and 1.0D-12 maximum.
          NewPWx=T KeepS1=T KeepF1=T KeepIn=T MapXYZ=F SortEE=F KeepMc=T.
         3675 words used for storage of precomputed grid.
 Keep R1 ints in memory in symmetry-blocked form, NReq=617187898.
 FoFCou: FMM=F IPFlag=           0 FMFlag=           0 FMFlg1=           0
         NFxFlg=           0 DoJE=F BraDBF=F KetDBF=F FulRan=T
         wScrn=  0.000000 ICntrl=       600 IOpCl=  0 I1Cent=           0 NGrid=           0
         NMat0=    1 NMatS0=  20100 NMatT0=    0 NMatD0=    1 NMtDS0=    0 NMtDT0=    0
 Petite list used in FoFCou.
          MDV=     671088640 using IRadAn=       1.
          Solving linear equations simultaneously, MaxMat=       0.
          There are    39 degrees of freedom in the 1st order CPHF.  IDoFFX=6 NUNeed=    39.
     36 vectors produced by pass  0 Test12= 1.27D-14 2.56D-09 XBig12= 5.70D+01 4.77D+00.
 AX will form    36 AO Fock derivatives at one time.
     36 vectors produced by pass  1 Test12= 1.27D-14 2.56D-09 XBig12= 9.59D+00 5.86D-01.
     36 vectors produced by pass  2 Test12= 1.27D-14 2.56D-09 XBig12= 1.70D-01 8.28D-02.
     36 vectors produced by pass  3 Test12= 1.27D-14 2.56D-09 XBig12= 1.78D-03 7.80D-03.
     36 vectors produced by pass  4 Test12= 1.27D-14 2.56D-09 XBig12= 1.18D-05 4.51D-04.
     36 vectors produced by pass  5 Test12= 1.27D-14 2.56D-09 XBig12= 5.72D-08 3.10D-05.
     32 vectors produced by pass  6 Test12= 1.27D-14 2.56D-09 XBig12= 2.57D-10 2.54D-06.
     13 vectors produced by pass  7 Test12= 1.27D-14 2.56D-09 XBig12= 1.21D-12 1.91D-07.
      3 vectors produced by pass  8 Test12= 1.27D-14 2.56D-09 XBig12= 6.00D-15 1.73D-08.
 InvSVY:  IOpt=1 It=  1 EMax= 8.88D-16
 Solved reduced A of dimension   264 with    39 vectors.
 FullF1:  Do perturbations      1 to      39.
 Isotropic polarizability for W=    0.000000       64.77 Bohr**3.
 Saving first derivative matrices.
 End of Minotr F.D. properties file   721 does not exist.
 End of Minotr F.D. properties file   722 does not exist.
 End of Minotr F.D. properties file   788 does not exist.
 Leave Link 1002 at Tue Nov 22 13:56:17 2022, MaxMem=   671088640 cpu:             297.3 elap:               6.0
 (Enter /shared/gaussian/g16.b01/AVX2/g16/l1014.exe)
 This link is doing    39 degrees of freedom
 Form MO integral derivatives with frozen-active canonical formalism.
 CISSec: MDV=     671082937
 Doing TD-HF/TD-DFT second derivatives, IDoFFX=6 IOneXC=4 IRadAn=         1.
 Frozen orbitals handled with amplitudes over full window.
 Frozen-core window:  NFC=   8 NFV=   0.
 Symmetry is being used.
 Keep R1, R2, and R3 ints in memory in symmetry-blocked form, NReq=617227688.
 FoFCou: FMM=F IPFlag=           0 FMFlag=           0 FMFlg1=           0
         NFxFlg=           0 DoJE=F BraDBF=F KetDBF=F FulRan=T
         wScrn=  0.000000 ICntrl=       600 IOpCl=  0 I1Cent=           0 NGrid=           0
         NMat0=    1 NMatS0=  20100 NMatT0=    0 NMatD0=    1 NMtDS0=    0 NMtDT0=    0
 Petite list used in FoFCou.
 The selected state is a singlet.
 CISGrX: IGrad=3 NXY=2 DFT=T
 CISAX will form    39 AO SS matrices at one time.
 NMat=    39 NSing=    39 JSym2X= 2.
     36 vectors produced by pass  0 Test12= 1.84D-14 2.56D-09 XBig12= 8.58D+00 2.22D+00.
 AX will form    36 AO Fock derivatives at one time.
     36 vectors produced by pass  1 Test12= 1.84D-14 2.56D-09 XBig12= 2.41D+00 1.20D+00.
     36 vectors produced by pass  2 Test12= 1.84D-14 2.56D-09 XBig12= 1.79D-01 1.35D-01.
     36 vectors produced by pass  3 Test12= 1.84D-14 2.56D-09 XBig12= 7.62D-04 5.95D-03.
     36 vectors produced by pass  4 Test12= 1.84D-14 2.56D-09 XBig12= 8.04D-06 6.05D-04.
     36 vectors produced by pass  5 Test12= 1.84D-14 2.56D-09 XBig12= 2.82D-07 9.49D-05.
     33 vectors produced by pass  6 Test12= 1.84D-14 2.56D-09 XBig12= 6.38D-09 1.79D-05.
     18 vectors produced by pass  7 Test12= 1.84D-14 2.56D-09 XBig12= 1.31D-10 2.03D-06.
     13 vectors produced by pass  8 Test12= 1.84D-14 2.56D-09 XBig12= 1.96D-12 3.40D-07.
      6 vectors produced by pass  9 Test12= 1.84D-14 2.56D-09 XBig12= 2.54D-14 4.31D-08.
      1 vectors produced by pass 10 Test12= 1.84D-14 2.56D-09 XBig12= 2.74D-16 3.10D-09.
 InvSVY:  IOpt=1 It=  1 EMax= 1.63D-15
 Solved reduced A of dimension   287 with    39 vectors.
 Tx.T = -3.03D-06 for pert.     2
 Tx.T = -1.44D-06 for pert.     1
 Tx.T =  3.73D-07 for pert.    25
 Tx.T = -3.61D-07 for pert.    13
 Tx.T =  2.62D-07 for pert.     5
 Tx.T = -2.06D-07 for pert.    14
 Tx.T =  1.90D-07 for pert.     8
 Tx.T =  1.67D-07 for pert.    26
 Tx.T = -1.65D-07 for pert.    32
 Tx.T =  1.35D-07 for pert.     4
 SavDET:  read IOETrn=   770 NScale= 10 NData=  16 NLR=1 NState=   10 NDeriv=    0 LETran=     190.
 SavDET: write IOETrn=   770 NScale= 10 NData=  16 NLR=1 NState=   10 NDeriv=   39 LETran=     814.
 TDDxLx will form    39 C1x/S1x matrices at one time.
 Interchange theorem applied.
 FoFJK:  IHMeth= 1 ICntrl=    5100 DoSepK=T KAlg= 0 I1Cent=           0 FoldK=F
 IRaf=         1 NMat=       1 IRICut=       1 DoRegI=T DoRafI=F ISym2E= 0 IDoP0=0 IntGTp=1.
 Leave Link 1014 at Tue Nov 22 13:56:27 2022, MaxMem=   671088640 cpu:             527.0 elap:              10.8
 (Enter /shared/gaussian/g16.b01/AVX2/g16/l601.exe)
 Copying SCF densities to generalized density rwf, IOpCl= 0 IROHF=0.

 **********************************************************************

            Population analysis using the SCF Density.

 **********************************************************************

 Orbital symmetries:
       Occupied  (A') (A') (A') (A') (A') (A') (A') (A') (A') (A')
                 (A') (A') (A') (A') (A') (A') (A') (A') (A") (A')
                 (A') (A') (A') (A") (A") (A') (A") (A') (A")
       Virtual   (A") (A') (A') (A") (A') (A") (A') (A') (A') (A")
                 (A") (A') (A') (A") (A') (A') (A') (A') (A") (A')
                 (A") (A') (A') (A') (A') (A") (A') (A') (A') (A')
                 (A') (A") (A') (A') (A') (A') (A") (A') (A') (A')
                 (A') (A') (A') (A') (A') (A') (A') (A") (A') (A")
                 (A') (A") (A') (A") (A') (A') (A') (A') (A') (A')
                 (A') (A') (A') (A") (A') (A") (A') (A') (A') (A')
                 (A") (A") (A') (A') (A") (A") (A') (A") (A') (A")
                 (A') (A') (A") (A') (A") (A') (A') (A') (A') (A')
                 (A") (A') (A") (A') (A") (A') (A') (A') (A") (A')
                 (A') (A') (A') (A') (A") (A') (A') (A') (A") (A')
                 (A") (A') (A") (A') (A") (A') (A") (A') (A') (A')
                 (A') (A") (A') (A') (A") (A") (A') (A') (A") (A')
                 (A') (A") (A') (A") (A') (A') (A') (A") (A") (A')
                 (A') (A') (A') (A') (A') (A') (A') (A") (A') (A")
                 (A') (A') (A') (A') (A') (A') (A") (A") (A') (A')
                 (A') (A') (A') (A') (A') (A') (A') (A') (A') (A')
                 (A')
 The electronic state is 1-A'.
 Alpha  occ. eigenvalues --  -19.19043 -19.18498 -14.46871 -14.45137 -10.41485
 Alpha  occ. eigenvalues --  -10.38058 -10.34157 -10.27386  -1.18339  -1.14825
 Alpha  occ. eigenvalues --   -1.08180  -1.02634  -0.89851  -0.78502  -0.75623
 Alpha  occ. eigenvalues --   -0.68760  -0.65063  -0.60693  -0.57377  -0.55833
 Alpha  occ. eigenvalues --   -0.53737  -0.50808  -0.50252  -0.49392  -0.45272
 Alpha  occ. eigenvalues --   -0.38102  -0.36552  -0.34867  -0.32450
 Alpha virt. eigenvalues --   -0.01305   0.00608   0.03659   0.04035   0.04196
 Alpha virt. eigenvalues --    0.05992   0.06585   0.07896   0.08357   0.09748
 Alpha virt. eigenvalues --    0.11110   0.11224   0.11836   0.14079   0.14519
 Alpha virt. eigenvalues --    0.15286   0.15730   0.16822   0.17132   0.18128
 Alpha virt. eigenvalues --    0.19404   0.20682   0.21326   0.22342   0.23132
 Alpha virt. eigenvalues --    0.23993   0.25361   0.26023   0.27819   0.28565
 Alpha virt. eigenvalues --    0.29125   0.29180   0.29913   0.31722   0.33961
 Alpha virt. eigenvalues --    0.34351   0.34421   0.35228   0.35444   0.36806
 Alpha virt. eigenvalues --    0.39690   0.40895   0.42784   0.46075   0.50289
 Alpha virt. eigenvalues --    0.52256   0.56311   0.57192   0.58007   0.60643
 Alpha virt. eigenvalues --    0.62639   0.62664   0.65421   0.65585   0.68640
 Alpha virt. eigenvalues --    0.70678   0.74017   0.75944   0.77046   0.79612
 Alpha virt. eigenvalues --    0.81849   0.82351   0.85246   0.85457   0.89588
 Alpha virt. eigenvalues --    0.89650   0.89934   0.93931   0.98602   1.04746
 Alpha virt. eigenvalues --    1.06004   1.07573   1.09347   1.13807   1.16053
 Alpha virt. eigenvalues --    1.19074   1.20209   1.20428   1.22140   1.23539
 Alpha virt. eigenvalues --    1.24036   1.25066   1.28558   1.29619   1.33443
 Alpha virt. eigenvalues --    1.35260   1.38359   1.53655   1.56285   1.60073
 Alpha virt. eigenvalues --    1.61931   1.67195   1.69360   1.69903   1.72479
 Alpha virt. eigenvalues --    1.73484   1.77094   1.79766   1.80749   1.84633
 Alpha virt. eigenvalues --    1.87336   1.90347   1.96301   1.98495   1.99019
 Alpha virt. eigenvalues --    2.03477   2.06953   2.11041   2.11972   2.26783
 Alpha virt. eigenvalues --    2.28351   2.31350   2.38503   2.39910   2.45637
 Alpha virt. eigenvalues --    2.48904   2.54960   2.56826   2.64349   2.67929
 Alpha virt. eigenvalues --    2.72287   2.75014   2.76017   2.78855   2.82943
 Alpha virt. eigenvalues --    2.86152   2.90888   2.92856   2.94884   2.97870
 Alpha virt. eigenvalues --    2.98613   2.99627   3.00977   3.02625   3.08714
 Alpha virt. eigenvalues --    3.19299   3.21202   3.42949   3.44058   3.45103
 Alpha virt. eigenvalues --    3.48279   3.53490   3.57016   3.62447   3.68191
 Alpha virt. eigenvalues --    3.71832   3.75912   3.87977   3.92162   3.92695
 Alpha virt. eigenvalues --    4.05677   4.12354   4.25907   4.76638   4.86980
 Alpha virt. eigenvalues --    4.92692   5.10079   5.12829   5.21073   5.25830
 Alpha virt. eigenvalues --    5.41316   5.82535   5.86469  23.74627  23.89603
 Alpha virt. eigenvalues --   23.95131  24.25557  35.61511  35.67066  50.04735
 Alpha virt. eigenvalues --   50.09641
          Condensed to atoms (all electrons):
               1          2          3          4          5          6
     1  C    4.921118  -0.216623   0.178986  -0.135384   0.178514   0.008552
     2  C   -0.216623   5.910596  -0.269676  -0.118364   0.297319   0.397449
     3  C    0.178986  -0.269676   6.129434   0.080504  -0.363812   0.004881
     4  C   -0.135384  -0.118364   0.080504   5.378933   0.104714   0.001220
     5  N    0.178514   0.297319  -0.363812   0.104714   7.297689  -0.003432
     6  H    0.008552   0.397449   0.004881   0.001220  -0.003432   0.495228
     7  H   -0.006054  -0.034980   0.400176   0.002773   0.010634  -0.006193
     8  O    0.023929   0.025999  -0.140672   0.406088  -0.098005  -0.000306
     9  O    0.407705   0.043847  -0.022702   0.027703  -0.101397  -0.000202
    10  N    0.271244   0.037554  -0.019351   0.099212  -0.228235  -0.053921
    11  H   -0.018893  -0.018581   0.005172  -0.007552   0.010144  -0.003586
    12  H   -0.019789  -0.012936   0.013589  -0.009501   0.334544   0.000075
               7          8          9         10         11         12
     1  C   -0.006054   0.023929   0.407705   0.271244  -0.018893  -0.019789
     2  C   -0.034980   0.025999   0.043847   0.037554  -0.018581  -0.012936
     3  C    0.400176  -0.140672  -0.022702  -0.019351   0.005172   0.013589
     4  C    0.002773   0.406088   0.027703   0.099212  -0.007552  -0.009501
     5  N    0.010634  -0.098005  -0.101397  -0.228235   0.010144   0.334544
     6  H   -0.006193  -0.000306  -0.000202  -0.053921  -0.003586   0.000075
     7  H    0.470785  -0.009118   0.000145   0.009297  -0.000053  -0.000135
     8  O   -0.009118   8.124032   0.001089  -0.001306  -0.000006   0.008031
     9  O    0.000145   0.001089   8.119126  -0.126431   0.011194   0.007925
    10  N    0.009297  -0.001306  -0.126431   7.036026   0.350106   0.012797
    11  H   -0.000053  -0.000006   0.011194   0.350106   0.341283  -0.000059
    12  H   -0.000135   0.008031   0.007925   0.012797  -0.000059   0.324035
 Mulliken charges:
               1
     1  C    0.406694
     2  C   -0.041604
     3  C    0.003469
     4  C    0.169654
     5  N   -0.438679
     6  H    0.160236
     7  H    0.162723
     8  O   -0.339754
     9  O   -0.368000
    10  N   -0.386992
    11  H    0.330830
    12  H    0.341423
 Sum of Mulliken charges =  -0.00000
 Mulliken charges with hydrogens summed into heavy atoms:
               1
     1  C    0.406694
     2  C    0.118632
     3  C    0.166192
     4  C    0.169654
     5  N   -0.097256
     8  O   -0.339754
     9  O   -0.368000
    10  N   -0.056161
 APT charges:
               1
     1  C    1.128773
     2  C    0.033827
     3  C    0.135584
     4  C    0.338853
     5  N   -0.431356
     6  H    0.089183
     7  H    0.088498
     8  O   -0.442885
     9  O   -0.855802
    10  N   -0.560591
    11  H    0.247844
    12  H    0.228073
 Sum of APT charges =   0.00000
 APT charges with hydrogens summed into heavy atoms:
               1
[...]
      1   0.000000D+00  0.000000D+00  0.000000D+00  0.000000D+00  0.000000D+00
      2   0.141644D+00  0.000000D+00  0.000000D+00  0.575966D+00  0.000000D+00
      3   0.112121D+00  0.000000D+00  0.000000D+00  0.272631D+00  0.000000D+00
      4   0.000000D+00  0.138822D-01 -0.278216D-01  0.000000D+00  0.944523D-02
      5  -0.326314D-01  0.000000D+00  0.000000D+00 -0.108195D+00  0.000000D+00
      6  -0.187920D-01  0.000000D+00  0.000000D+00 -0.461172D-01  0.000000D+00
      7   0.000000D+00  0.210701D-03  0.578179D-02  0.000000D+00 -0.770185D-02
      8   0.000000D+00  0.524649D+00  0.236683D+00  0.000000D+00 -0.415248D+00
      9   0.000000D+00 -0.139854D+00 -0.554802D-01  0.000000D+00  0.151492D+00
     10  -0.288460D+00  0.000000D+00  0.000000D+00 -0.680699D+00  0.000000D+00
     11   0.162351D-01  0.000000D+00  0.000000D+00 -0.190103D+00  0.000000D+00
     12   0.824605D-01  0.000000D+00  0.000000D+00  0.912037D-01  0.000000D+00
     13  -0.482427D-02  0.000000D+00  0.000000D+00  0.300194D-01  0.000000D+00
     14   0.393796D-01  0.000000D+00  0.000000D+00 -0.615081D-02  0.000000D+00
     15   0.000000D+00  0.434264D-02  0.428203D-02  0.000000D+00 -0.165228D-01
     16   0.000000D+00  0.237337D-01 -0.107696D-01  0.000000D+00  0.538443D-02
                11            12            13            14            15 
      1   0.000000D+00  0.000000D+00  0.000000D+00  0.000000D+00  0.000000D+00
      2   0.000000D+00 -0.286051D+00  0.000000D+00  0.000000D+00 -0.529780D+00
      3   0.000000D+00 -0.214941D+00  0.000000D+00  0.000000D+00 -0.124864D+00
      4  -0.549724D-02  0.000000D+00  0.227289D-01  0.151841D-01  0.000000D+00
      5   0.000000D+00  0.553831D-01  0.000000D+00  0.000000D+00  0.954073D-01
      6   0.000000D+00  0.376745D-01  0.000000D+00  0.000000D+00  0.173503D-01
      7  -0.436728D-02  0.000000D+00  0.778549D-03 -0.460073D-02  0.000000D+00
      8  -0.361494D+00  0.000000D+00 -0.504099D+00  0.763848D-01  0.000000D+00
      9   0.962592D-01  0.000000D+00  0.507038D+00 -0.277427D+00  0.000000D+00
     10   0.000000D+00  0.449207D+00  0.000000D+00  0.000000D+00  0.863518D-01
     11   0.000000D+00  0.106296D+00  0.000000D+00  0.000000D+00  0.174973D+00
     12   0.000000D+00 -0.192356D-01  0.000000D+00  0.000000D+00 -0.118079D+00
     13   0.000000D+00 -0.427450D-01  0.000000D+00  0.000000D+00 -0.513764D-01
     14   0.000000D+00  0.382490D-01  0.000000D+00  0.000000D+00 -0.111944D+00
     15  -0.138774D-02  0.000000D+00 -0.379258D-01 -0.897791D-02  0.000000D+00
     16   0.133731D-01  0.000000D+00 -0.626069D-01 -0.405016D-02  0.000000D+00
                16            17            18            19            20 
      1   0.000000D+00  0.000000D+00  0.000000D+00  0.000000D+00  0.000000D+00
      2   0.000000D+00  0.000000D+00  0.110239D+00  0.000000D+00  0.000000D+00
      3   0.000000D+00  0.000000D+00 -0.539574D-01  0.000000D+00  0.000000D+00
      4  -0.312589D-01  0.957607D-03  0.000000D+00 -0.115301D-01  0.155226D-01
      5   0.000000D+00  0.000000D+00 -0.197938D-01  0.000000D+00  0.000000D+00
      6   0.000000D+00  0.000000D+00  0.918594D-02  0.000000D+00  0.000000D+00
      7  -0.148345D-02 -0.143566D-03  0.000000D+00  0.224788D-02 -0.240251D-02
      8  -0.295199D+00 -0.121555D+00  0.000000D+00 -0.508039D-01  0.164966D-01
      9  -0.181228D+00  0.234883D+00  0.000000D+00  0.849844D-02  0.604822D-03
     10   0.000000D+00  0.000000D+00  0.109911D-02  0.000000D+00  0.000000D+00
     11   0.000000D+00  0.000000D+00 -0.973376D-01  0.000000D+00  0.000000D+00
     12   0.000000D+00  0.000000D+00 -0.470801D-01  0.000000D+00  0.000000D+00
     13   0.000000D+00  0.000000D+00  0.338232D-01  0.000000D+00  0.000000D+00
     14   0.000000D+00  0.000000D+00  0.146280D-01  0.000000D+00  0.000000D+00
     15   0.479185D-02 -0.113647D-01  0.000000D+00  0.424371D-03 -0.240636D-03
     16  -0.718317D-02 -0.672404D-02  0.000000D+00 -0.150905D-01  0.132452D-01
                21            22            23            24            25 
      1   0.000000D+00  0.000000D+00  0.000000D+00  0.000000D+00  0.000000D+00
      2  -0.211230D+00  0.000000D+00  0.000000D+00  0.146187D+00  0.000000D+00
      3  -0.974886D-01  0.000000D+00  0.000000D+00  0.571260D-01  0.000000D+00
      4   0.000000D+00 -0.642304D-02 -0.782427D-02  0.000000D+00 -0.379398D-02
      5   0.399374D-01  0.000000D+00  0.000000D+00 -0.281656D-01  0.000000D+00
      6   0.162357D-01  0.000000D+00  0.000000D+00 -0.104647D-01  0.000000D+00
      7   0.000000D+00  0.117025D-02  0.206213D-02  0.000000D+00  0.390935D-02
      8   0.000000D+00 -0.193875D-01 -0.520799D-01  0.000000D+00  0.621758D+00
      9   0.000000D+00 -0.159535D-01 -0.379157D-01  0.000000D+00 -0.377159D+00
     10   0.270444D+00  0.000000D+00  0.000000D+00 -0.203572D+00  0.000000D+00
     11   0.607960D-01  0.000000D+00  0.000000D+00 -0.444552D-01  0.000000D+00
     12  -0.503023D-01  0.000000D+00  0.000000D+00  0.297708D-01  0.000000D+00
     13   0.298660D-02  0.000000D+00  0.000000D+00  0.189228D-02  0.000000D+00
     14  -0.138890D-01  0.000000D+00  0.000000D+00  0.111317D-01  0.000000D+00
     15   0.000000D+00  0.602324D-02  0.798499D-02  0.000000D+00  0.445095D-01
     16   0.000000D+00 -0.187439D-02 -0.795948D-02  0.000000D+00  0.499581D-01
                26            27            28            29            30 
      1   0.000000D+00  0.000000D+00  0.000000D+00  0.000000D+00  0.000000D+00
      2   0.000000D+00  0.253533D+00  0.000000D+00  0.000000D+00 -0.289750D-01
      3   0.000000D+00  0.126468D+00  0.000000D+00  0.000000D+00 -0.409928D-01
      4   0.672497D-04  0.000000D+00 -0.702865D-02  0.271864D-02  0.000000D+00
      5   0.000000D+00 -0.435738D-01  0.000000D+00  0.000000D+00  0.884107D-02
      6   0.000000D+00 -0.194288D-01  0.000000D+00  0.000000D+00  0.615638D-02
      7   0.452285D-02  0.000000D+00  0.105301D-02  0.913979D-04  0.000000D+00
      8   0.988749D-01  0.000000D+00  0.160333D-01 -0.943262D-01  0.000000D+00
      9   0.994598D-01  0.000000D+00  0.918062D-02  0.147235D-01  0.000000D+00
     10   0.000000D+00  0.928916D-01  0.000000D+00  0.000000D+00  0.119984D+00
     11   0.000000D+00 -0.574959D-01  0.000000D+00  0.000000D+00  0.980547D-03
     12   0.000000D+00  0.513720D-01  0.000000D+00  0.000000D+00 -0.270402D-01
     13   0.000000D+00  0.234337D-01  0.000000D+00  0.000000D+00  0.221925D-03
     14   0.000000D+00  0.307769D-01  0.000000D+00  0.000000D+00 -0.145028D-01
     15   0.745685D-02  0.000000D+00  0.285094D-02  0.108610D-02  0.000000D+00
     16   0.718902D-04  0.000000D+00  0.385594D-02 -0.401072D-02  0.000000D+00
                31            32            33            34            35 
      1   0.000000D+00  0.000000D+00  0.000000D+00  0.000000D+00  0.000000D+00
      2   0.000000D+00  0.000000D+00 -0.110356D+00  0.000000D+00  0.000000D+00
      3   0.000000D+00  0.000000D+00 -0.193743D-01  0.000000D+00  0.000000D+00
      4  -0.536783D-02 -0.112445D-01  0.000000D+00  0.163857D-02  0.679262D-03
      5   0.000000D+00  0.000000D+00  0.227519D-01  0.000000D+00  0.000000D+00
      6   0.000000D+00  0.000000D+00  0.339522D-02  0.000000D+00  0.000000D+00
      7  -0.704067D-03  0.161476D-02  0.000000D+00 -0.279310D-03 -0.246029D-03
      8  -0.259080D-01 -0.305494D+00  0.000000D+00  0.108531D-01  0.170699D-02
      9   0.504908D-01  0.900608D-01  0.000000D+00 -0.865456D-02 -0.131832D-01
     10   0.000000D+00  0.000000D+00  0.125374D+00  0.000000D+00  0.000000D+00
     11   0.000000D+00  0.000000D+00  0.130172D-01  0.000000D+00  0.000000D+00
     12   0.000000D+00  0.000000D+00  0.788800D-02  0.000000D+00  0.000000D+00
     13   0.000000D+00  0.000000D+00 -0.580074D-02  0.000000D+00  0.000000D+00
     14   0.000000D+00  0.000000D+00  0.271369D-02  0.000000D+00  0.000000D+00
     15  -0.385160D-02 -0.430973D-02  0.000000D+00  0.142075D-02  0.296173D-02
     16   0.140975D-02 -0.211198D-01  0.000000D+00  0.103357D-02  0.109745D-02
                36            37            38            39 
      1   0.000000D+00  0.000000D+00  0.000000D+00  0.000000D+00
      2  -0.376746D-01  0.000000D+00  0.000000D+00 -0.235039D-01
      3  -0.866089D-02  0.000000D+00  0.000000D+00 -0.806764D-02
      4   0.000000D+00 -0.557649D-02 -0.122122D-02  0.000000D+00
      5   0.661619D-02  0.000000D+00  0.000000D+00  0.342264D-02
      6   0.193360D-02  0.000000D+00  0.000000D+00  0.287111D-02
      7   0.000000D+00 -0.304533D-03 -0.384080D-03  0.000000D+00
      8   0.000000D+00 -0.979981D-02 -0.213853D-01  0.000000D+00
      9   0.000000D+00  0.114245D-01 -0.766824D-02  0.000000D+00
     10   0.159490D-01  0.000000D+00  0.000000D+00  0.114298D-01
     11   0.143025D-01  0.000000D+00  0.000000D+00  0.279135D-02
     12  -0.174060D-01  0.000000D+00  0.000000D+00  0.164481D-01
     13   0.682798D-03  0.000000D+00  0.000000D+00 -0.347112D-03
     14  -0.371284D-02  0.000000D+00  0.000000D+00  0.133207D-01
     15   0.000000D+00 -0.677815D-02 -0.514169D-03  0.000000D+00
     16   0.000000D+00  0.210182D-03 -0.314555D-03  0.000000D+00

 ----------------------------------------------------------------------

 Electric dipole moment (input orientation):
 (Debye = 10**-18 statcoulomb cm , SI units = C m)
                  (au)            (Debye)         (10**-30 SI)
   Tot        0.858979D+00      0.218331D+01      0.728273D+01
   x          0.411879D+00      0.104689D+01      0.349206D+01
   y         -0.753790D+00     -0.191594D+01     -0.639090D+01
   z          0.000000D+00      0.000000D+00      0.000000D+00

 Dipole polarizability, Alpha (input orientation).
 (esu units = cm**3 , SI units = C**2 m**2 J**-1)
 Alpha(0;0):
               (au)            (10**-24 esu)      (10**-40 SI)
   iso        0.709904D+02      0.105197D+02      0.117047D+02
   aniso      0.480225D+02      0.711621D+01      0.791785D+01
   xx         0.912319D+02      0.135192D+02      0.150421D+02
   yx         0.352871D+01      0.522901D+00      0.581806D+00
   yy         0.820590D+02      0.121599D+02      0.135297D+02
   zx         0.000000D+00      0.000000D+00      0.000000D+00
   zy         0.000000D+00      0.000000D+00      0.000000D+00
   zz         0.396805D+02      0.588004D+01      0.654243D+01

 ----------------------------------------------------------------------

 Dipole orientation:
     6         -1.50050059         -0.81989005         -1.71137183
     6         -1.27069144         -0.69431979          2.87013596
     6          0.95001628          0.51909935          2.88494673
     6          2.15927196          1.17984997          0.50269389
     7          0.78363590          0.42818729         -1.63569582
     1         -2.24680399         -1.22767844          4.58595814
     1          1.89272647          1.03420659          4.61685126
     8          4.15376510          2.26966299          0.26756996
     8         -2.57132531         -1.40500046         -3.63881012
     7         -2.46625300         -1.34758780          0.66382110
     1         -4.13799290         -2.26104488          0.67451574
     1          1.55575863          0.85008365         -3.33347290

 Electric dipole moment (dipole orientation):
 (Debye = 10**-18 statcoulomb cm , SI units = C m)
                  (au)            (Debye)         (10**-30 SI)
   Tot        0.858979D+00      0.218331D+01      0.728273D+01
   x          0.000000D+00      0.000000D+00      0.000000D+00
   y          0.000000D+00      0.000000D+00      0.000000D+00
   z          0.858979D+00      0.218331D+01      0.728273D+01

 Dipole polarizability, Alpha (dipole orientation).
 (esu units = cm**3 , SI units = C**2 m**2 J**-1)
 Alpha(0;0):
               (au)            (10**-24 esu)      (10**-40 SI)
   iso        0.709904D+02      0.105197D+02      0.117047D+02
   aniso      0.480225D+02      0.711621D+01      0.791785D+01
   xx         0.800420D+02      0.118610D+02      0.131971D+02
   yx         0.220539D+02      0.326806D+01      0.363620D+01
   yy         0.517310D+02      0.766575D+01      0.852929D+01
   zx         0.171447D+01      0.254058D+00      0.282677D+00
   zy         0.936803D+00      0.138820D+00      0.154458D+00
   zz         0.811984D+02      0.120324D+02      0.133878D+02

 ----------------------------------------------------------------------
 1\1\GINC-BAKU1\Freq\RCAM-B3LYP TD-FC\6-311+G(d,p)\C4H4N2O2\ROOT\22-Nov
 -2022\0\\#p freq td=(nstates=10) cam-b3lyp/6-311+G(d,p) symm=loose\\Ur
 acil TDDFT\\0,1\C,-1.228274,0.360852,0.\C,0.055847,-1.700239,0.\C,1.23
 4753,-1.065003,0.\C,1.270191,0.390911,0.\N,-0.000359,0.986164,0.\H,-0.
 025317,-2.779266,0.\H,2.173067,-1.596674,0.\O,2.265971,1.076801,0.\O,-
 2.283998,0.94628,0.\N,-1.136647,-1.021375,0.\H,-2.01858,-1.509722,0.\H
 ,-0.022563,1.997828,0.\\Version=ES64L-G16RevB.01\State=1-A'\HF=-414.77
 00719\RMSD=8.402e-09\RMSF=3.635e-02\ZeroPoint=0.0822314\Thermal=0.0885
 229\Dipole=0.4118794,-0.7537904,0.\DipoleDeriv=1.8655364,-0.6800328,0.
 ,-0.3361883,1.0913263,0.,0.,0.,0.4294555,0.796719,-0.452195,0.,-0.3150
 26,-0.4858825,0.,0.,0.,-0.2093557,-0.1143756,0.5966953,0.,-0.0108961,0
 .7312555,0.,0.,0.,-0.2101268,0.3356655,0.3741617,0.,0.0649049,0.602460
 6,0.,0.,0.,0.0784318,-0.6181886,0.460407,0.,-0.3637444,-0.3397887,0.,0
 .,0.,-0.3360897,0.0608654,-0.0261668,0.,0.0199096,0.012989,0.,0.,0.,0.
 1936937,0.0160534,0.0248789,0.,0.0224513,0.0690486,0.,0.,0.,0.1803916,
 -0.4328147,-0.8459273,0.,-0.2435826,-0.8475617,0.,0.,0.,-0.0482778,-1.
 413631,0.593329,0.,0.4461469,-0.7341745,0.,0.,0.,-0.4196001,-0.8045285
 ,-0.1383562,0.,0.6266437,-0.5876432,0.,0.,0.,-0.2896019,0.2173853,0.07
 69075,0.,0.0947914,0.2084997,0.,0.,0.,0.3176464,0.0913134,0.0162988,0.
 ,-0.0054105,0.279471,0.,0.,0.,0.3134331\Polar=91.2318707,3.5287113,82.
 0589529,0.,0.,39.6805011\PG=CS [SG(C4H4N2O2)]\NImag=2\\0.91348878,-0.2
 0308062,0.63496917,0.,0.,0.19884620,0.00252785,0.02101935,0.,0.7907544
 2,0.01495751,-0.06481545,0.,0.07433379,0.74251890,0.,0.,-0.00796549,0.
 ,0.,0.04512657,0.01627870,0.01506497,0.,-0.38623723,-0.14761200,0.,0.8
 3274075,0.01983254,0.04641304,0.,-0.13028861,-0.15478439,0.,-0.0121607
 6,0.49265000,0.,0.,0.00369565,0.,0.,-0.02896597,0.,0.,0.08109683,-0.04
 018278,0.06507138,0.,0.03497985,-0.01930844,0.,-0.10557603,0.01415671,
 0.,0.72941266,-0.00201274,0.02313209,0.,-0.03817655,-0.05059049,0.,0.0
 1195832,-0.14211536,0.,0.25045812,0.58365158,0.,0.,-0.00299603,0.,0.,0
 .02275930,0.,0.,-0.03458875,0.,0.,-0.04061829,-0.19674330,-0.04077495,
 0.,-0.00470003,0.02710929,0.,-0.03264032,-0.02287179,0.,-0.17647748,0.
 10399149,0.,0.64333578,-0.06070012,-0.15111584,0.,0.00521787,0.0165950
 3,0.,0.03692893,-0.04729626,0.,0.04489714,-0.14010685,0.,0.00144256,0.
 80195538,0.,0.,-0.04402607,0.,0.,-0.00671273,0.,0.,0.00223997,0.,0.,0.
 00631817,0.,0.,0.01106131,-0.00529340,-0.00376297,0.,-0.06003447,-0.03
 043439,0.,0.00193437,-0.02422009,0.,-0.00540267,-0.00713986,0.,0.00086
 531,0.00221328,0.,0.06428505,0.00325342,0.00537451,0.,-0.02032985,-0.3
 4247631,0.,-0.00056189,-0.01158378,0.,-0.00180460,0.00312269,0.,-0.002
 00978,-0.00053081,0.,0.02062790,0.36359377,0.,0.,0.00232864,0.,0.,-0.0
 1479707,0.,0.,0.00221430,0.,0.,-0.00392025,0.,0.,0.00024990,0.,0.,0.01
 226931,0.00010891,-0.00042688,0.,-0.01559745,0.01637579,0.,-0.28459258
 ,0.12989128,0.,0.00039129,-0.00639182,0.,0.00116062,-0.00073883,0.,0.0
 0056524,-0.00010594,0.,0.29647916,-0.00048382,0.00073884,0.,-0.0115189
 4,0.01377269,0.,0.12832857,-0.12725442,0.,0.01386779,-0.01879812,0.,0.
 00043114,-0.00508600,0.,0.00009660,0.00061942,0.,-0.13646516,0.1313908
 0,0.,0.,-0.00133136,0.,0.,-0.00190161,0.,0.,-0.02518789,0.,0.,0.001637
 42,0.,0.,0.00376528,0.,0.,-0.00379262,0.,0.,0.02096993,-0.00951940,-0.
 05699469,0.,-0.03365780,-0.03594099,0.,0.02301274,0.00696904,0.,-0.437
 97864,-0.35998659,0.,-0.07516474,0.01098706,0.,0.00177323,0.00121911,0
 .,0.00372610,0.00908450,0.,0.53015583,-0.00519823,-0.03489961,0.,-0.01
 759483,-0.02226482,0.,-0.01307167,-0.02985614,0.,-0.32919460,-0.238158
 48,0.,-0.00753733,0.02072327,0.,0.00154697,-0.00032121,0.,0.00137110,0
 .00681330,0.,0.37325370,0.26490025,0.,0.,-0.00402264,0.,0.,-0.00165144
 ,0.,0.,-0.00330041,0.,0.,0.06017585,0.,0.,-0.00463626,0.,0.,0.00576621
 ,0.,0.,-0.00339812,0.,0.,-0.05115889,-0.54925218,0.26134640,0.,0.00328
 616,0.00356969,0.,-0.00399739,-0.00139311,0.,0.00056606,-0.00750773,0.
 ,-0.09949521,0.00909906,0.,-0.00069848,0.00028717,0.,0.00008624,-0.000
 07725,0.,0.00200565,0.00196752,0.,0.65534475,0.25580822,-0.23462848,0.
 ,-0.00900898,0.00493115,0.,-0.00030879,-0.00967920,0.,-0.01880068,-0.0
 0345682,0.,-0.00627873,0.02331851,0.,0.00289292,-0.00183949,0.,0.00016
 166,-0.00001180,0.,0.01364446,0.00859647,0.,-0.31795508,0.27755119,0.,
 0.,-0.08088061,0.,0.,0.00648239,0.,0.,-0.00090630,0.,0.,0.00358537,0.,
 0.,0.01727629,0.,0.,-0.00051214,0.,0.,-0.00013107,0.,0.,0.00131500,0.,
 0.,0.03999579,-0.15331713,-0.02071084,0.,-0.31223678,0.11071276,0.,-0.
 05531335,0.01272258,0.,0.00848015,0.02561956,0.,0.01120766,-0.05755726
 ,0.,0.00079243,-0.00074373,0.,-0.00185946,-0.00327478,0.,-0.01189642,-
 0.00943950,0.,-0.00546892,0.07431720,0.,0.89334970,0.01681054,-0.19896
 668,0.,0.10899984,-0.16142699,0.,-0.02376466,-0.01279372,0.,-0.0202384
 0,-0.00785539,0.,-0.05990593,-0.06293432,0.,0.03782973,-0.01626885,0.,
 -0.00429326,-0.00243771,0.,0.03695267,0.02257908,0.,0.04497191,-0.0702
 6818,0.,0.03368387,0.67688583,0.,0.,-0.06307236,0.,0.,-0.00597096,0.,0
 .,0.00393959,0.,0.,-0.00841053,0.,0.,0.01641096,0.,0.,-0.00037050,0.,0
 .,0.00712453,0.,0.,0.00008643,0.,0.,0.02180179,0.,0.,0.02985215,0.0095
 8958,-0.00208998,0.,-0.01870240,-0.01495159,0.,-0.00063389,0.00480136,
 0.,-0.00048456,-0.00048787,0.,0.00066044,0.00322297,0.,0.00118192,0.00
 016658,0.,-0.00057095,-0.00067798,0.,0.00053637,0.00017994,0.,-0.00267
 985,0.00113451,0.,-0.36740798,-0.16729673,0.,0.37801256,-0.03824060,-0
 .01272240,0.,0.01776310,0.01661165,0.,0.00393900,-0.00277639,0.,0.0011
 2361,-0.00169029,0.,0.00067108,-0.00638140,0.,0.00024381,0.00038319,0.
 ,0.00078876,0.00044581,0.,0.00065063,0.00072982,0.,0.00310648,0.004209
 10,0.,-0.16449066,-0.16707666,0.,0.17593625,0.16868564,0.,0.,-0.000439
 98,0.,0.,-0.00600575,0.,0.,0.00021156,0.,0.,-0.00069823,0.,0.,0.002648
 61,0.,0.,0.00073687,0.,0.,0.00129511,0.,0.,0.00003176,0.,0.,-0.0040317
 4,0.,0.,-0.00358921,0.,0.,0.00808604,0.01231437,-0.03466118,0.,-0.0003
 8213,0.00118857,0.,-0.00497578,0.00256086,0.,-0.00772786,0.02967568,0.
 ,-0.07200873,0.00498733,0.,0.00003146,0.00000161,0.,0.00010288,0.00068
 934,0.,0.00700707,0.00371692,0.,0.00030315,0.00439329,0.,-0.00632990,-
 0.00374959,0.,0.00049876,-0.00149146,0.,0.07116670,-0.00094610,-0.0134
 7918,0.,-0.00041620,0.00192903,0.,0.00125999,-0.00092337,0.,-0.0002280
 3,-0.00713455,0.,0.00573293,-0.44914071,0.,0.00010609,-0.00007313,0.,-
 0.00016670,-0.00019279,0.,0.00016111,0.00115807,0.,0.00258492,0.001277
 56,0.,-0.00083919,0.00056361,0.,0.00006253,-0.00041807,0.,-0.00731137,
 0.46643354,0.,0.,-0.00013595,0.,0.,-0.00039723,0.,0.,-0.00044859,0.,0.
 ,-0.00324403,0.,0.,-0.00459543,0.,0.,-0.00017265,0.,0.,0.00095040,0.,0
 .,0.00079249,0.,0.,-0.00399477,0.,0.,0.00219811,0.,0.,0.00175497,0.,0.
 ,0.00729268\\0.00252848,0.03095879,0.,0.00389807,0.03102304,0.,-0.0284
 5554,-0.04286004,0.,0.10113396,0.12671067,0.,-0.00225583,-0.03546568,0
 .,-0.00248489,-0.00197758,0.,0.00007421,-0.00024191,0.,-0.09341587,-0.
 07403939,0.,-0.00389466,-0.00769122,0.,0.01979455,-0.02687577,0.,-0.00
 118519,-0.00145194,0.,0.00426269,0.00191103,0.\\\@


 SOME THINGS ARE EASY, THEY ARE ONLY HARD TO DO.
            -- A. EINSTEIN TO J. O. HIRSCHFELDER
 THE ONLY TROUBLE WITH A SURE THING IS THE UNCERTAINTY.
     -- FROM A TEABAG (BELONGING TO W.H.?)
 Job cpu time:       0 days  0 hours 59 minutes 25.7 seconds.
 Elapsed time:       0 days  0 hours  1 minutes 15.6 seconds.
 File lengths (MBytes):  RWF=    295 Int=      0 D2E=      0 Chk=     17 Scr=      1
 Normal termination of Gaussian 16 at Tue Nov 22 13:56:37 2022.
