Uracil                                                                  
Freq      RCAM-B3LYP                                                  6-311+G(d,p)        
Number of atoms                            I               12
Info1-9                                    I   N=           9
          21          21           0           0           0         100
           6          18        4002
Full Title                                 C   N=           1
Uracil      
Route                                      C   N=           4
#p freq cam-b3lyp/6-311+G(d,p) symm=loose       
Charge                                     I                0
Multiplicity                               I                1
Number of electrons                        I               58
Number of alpha electrons                  I               29
Number of beta electrons                   I               29
Number of basis functions                  I              200
Number of independent functions            I              200
Number of point charges in /Mol/           I                0
Number of translation vectors              I                0
Atomic numbers                             I   N=          12
           6           6           6           6           7           1
           1           8           8           7           1           1
Nuclear charges                            R   N=          12
  6.00000000E+00  6.00000000E+00  6.00000000E+00  6.00000000E+00  7.00000000E+00
  1.00000000E+00  1.00000000E+00  8.00000000E+00  8.00000000E+00  7.00000000E+00
  1.00000000E+00  1.00000000E+00
Current cartesian coordinates              R   N=          36
 -2.32082088E+00  6.83688026E-01 -9.70668692E-32  1.04504278E-01 -3.21202649E+00
  3.08148791E-33  2.33271789E+00 -2.01235477E+00  9.86076132E-32  2.40061256E+00
  7.38901245E-01  1.00148357E-31 -1.50704102E-17  1.86457492E+00  0.00000000E+00
 -4.95601515E-02 -5.25104023E+00  0.00000000E+00  4.10553591E+00 -3.01766444E+00
  1.72563323E-31  4.28280045E+00  2.03441170E+00  1.78726299E-31 -4.31547742E+00
  1.79065843E+00 -1.78726299E-31 -2.14855062E+00 -1.92840061E+00 -8.93631494E-32
 -3.81547315E+00 -2.85068137E+00 -1.60237371E-31 -4.13156401E-02  3.77635683E+00
 -3.08148791E-33
Number of symbols in /Mol/                 I                0
Force Field                                I                0
Atom Types                                 C   N=          12
                                                            
                                                            
                        
Int Atom Types                             I   N=          12
           0           0           0           0           0           0
           0           0           0           0           0           0
MM charges                                 R   N=          12
  0.00000000E+00  0.00000000E+00  0.00000000E+00  0.00000000E+00  0.00000000E+00
  0.00000000E+00  0.00000000E+00  0.00000000E+00  0.00000000E+00  0.00000000E+00
  0.00000000E+00  0.00000000E+00
Integer atomic weights                     I   N=          12
          12          12          12          12          14           1
           1          16          16          14           1           1
Real atomic weights                        R   N=          12
  1.20000000E+01  1.20000000E+01  1.20000000E+01  1.20000000E+01  1.40030740E+01
  1.00782504E+00  1.00782504E+00  1.59949146E+01  1.59949146E+01  1.40030740E+01
  1.00782504E+00  1.00782504E+00
Atom fragment info                         I   N=          12
           0           0           0           0           0           0
           0           0           0           0           0           0
Atom residue num                           I   N=          12
           0           0           0           0           0           0
           0           0           0           0           0           0
Nuclear spins                              I   N=          12
           0           0           0           0           2           1
           1           0           0           2           1           1
Nuclear ZEff                               R   N=          12
 -3.60000000E+00 -3.60000000E+00 -3.60000000E+00 -3.60000000E+00 -4.55000000E+00
 -1.00000000E+00 -1.00000000E+00 -5.60000000E+00 -5.60000000E+00 -4.55000000E+00
 -1.00000000E+00 -1.00000000E+00
Nuclear ZNuc                               R   N=          12
  6.00000000E+00  6.00000000E+00  6.00000000E+00  6.00000000E+00  7.00000000E+00
  1.00000000E+00  1.00000000E+00  8.00000000E+00  8.00000000E+00  7.00000000E+00
  1.00000000E+00  1.00000000E+00
Nuclear QMom                               R   N=          12
  0.00000000E+00  0.00000000E+00  0.00000000E+00  0.00000000E+00  2.04400000E+00
  0.00000000E+00  0.00000000E+00  0.00000000E+00  0.00000000E+00  2.04400000E+00
  0.00000000E+00  0.00000000E+00
Nuclear GFac                               R   N=          12
  0.00000000E+00  0.00000000E+00  0.00000000E+00  0.00000000E+00  4.03761000E-01
  2.79284600E+00  2.79284600E+00  0.00000000E+00  0.00000000E+00  4.03761000E-01
  2.79284600E+00  2.79284600E+00
MicOpt                                     I   N=          12
          -1          -1          -1          -1          -1          -1
          -1          -1          -1          -1          -1          -1
Number of residues                         I                0
Number of secondary structures             I                0
SymInf integers                            I   N=          26
           1           2           1           1           1           1
           1          -1           0           0           0           0
           0           0           0           0           0           0
           0           0           0           0           0           0
           0           0
RotTr to input orientation                 R   N=          12
  9.99999943E-01  3.36775397E-04  6.38332839E-20 -3.36775397E-04  9.99999943E-01
 -3.95355165E-18 -6.51647393E-20  3.95352993E-18  1.00000000E+00 -5.04687201E-05
 -9.94940805E-04  0.00000000E+00
Number of contracted shells                I               64
Number of primitive shells                 I              128
Pure/Cartesian d shells                    I                0
Pure/Cartesian f shells                    I                0
Highest angular momentum                   I                2
Largest degree of contraction              I                6
Shell types                                I   N=          64
           0          -1          -1          -1          -1          -2
           0          -1          -1          -1          -1          -2
           0          -1          -1          -1          -1          -2
           0          -1          -1          -1          -1          -2
           0          -1          -1          -1          -1          -2
           0           0           0           1           0           0
           0           1           0          -1          -1          -1
          -1          -2           0          -1          -1          -1
          -1          -2           0          -1          -1          -1
          -1          -2           0           0           0           1
           0           0           0           1
Number of primitives per shell             I   N=          64
           6           3           1           1           1           1
           6           3           1           1           1           1
           6           3           1           1           1           1
           6           3           1           1           1           1
           6           3           1           1           1           1
           3           1           1           1           3           1
           1           1           6           3           1           1
           1           1           6           3           1           1
           1           1           6           3           1           1
           1           1           3           1           1           1
           3           1           1           1
Shell to atom map                          I   N=          64
           1           1           1           1           1           1
           2           2           2           2           2           2
           3           3           3           3           3           3
           4           4           4           4           4           4
           5           5           5           5           5           5
           6           6           6           6           7           7
           7           7           8           8           8           8
           8           8           9           9           9           9
           9           9          10          10          10          10
          10          10          11          11          11          11
          12          12          12          12
Primitive exponents                        R   N=         128
  4.56324000E+03  6.82024000E+02  1.54973000E+02  4.44553000E+01  1.30290000E+01
  1.82773000E+00  2.09642000E+01  4.80331000E+00  1.45933000E+00  4.83456000E-01
  1.45585000E-01  4.38000000E-02  6.26000000E-01  4.56324000E+03  6.82024000E+02
  1.54973000E+02  4.44553000E+01  1.30290000E+01  1.82773000E+00  2.09642000E+01
  4.80331000E+00  1.45933000E+00  4.83456000E-01  1.45585000E-01  4.38000000E-02
  6.26000000E-01  4.56324000E+03  6.82024000E+02  1.54973000E+02  4.44553000E+01
  1.30290000E+01  1.82773000E+00  2.09642000E+01  4.80331000E+00  1.45933000E+00
  4.83456000E-01  1.45585000E-01  4.38000000E-02  6.26000000E-01  4.56324000E+03
  6.82024000E+02  1.54973000E+02  4.44553000E+01  1.30290000E+01  1.82773000E+00
  2.09642000E+01  4.80331000E+00  1.45933000E+00  4.83456000E-01  1.45585000E-01
  4.38000000E-02  6.26000000E-01  6.29348000E+03  9.49044000E+02  2.18776000E+02
  6.36916000E+01  1.88282000E+01  2.72023000E+00  3.06331000E+01  7.02614000E+00
  2.11205000E+00  6.84009000E-01  2.00878000E-01  6.39000000E-02  9.13000000E-01
  3.38650000E+01  5.09479000E+00  1.15879000E+00  3.25840000E-01  1.02741000E-01
  7.50000000E-01  3.38650000E+01  5.09479000E+00  1.15879000E+00  3.25840000E-01
  1.02741000E-01  7.50000000E-01  8.58850000E+03  1.29723000E+03  2.99296000E+02
  8.73771000E+01  2.56789000E+01  3.74004000E+00  4.21175000E+01  9.62837000E+00
  2.85332000E+00  9.05661000E-01  2.55611000E-01  8.45000000E-02  1.29200000E+00
  8.58850000E+03  1.29723000E+03  2.99296000E+02  8.73771000E+01  2.56789000E+01
  3.74004000E+00  4.21175000E+01  9.62837000E+00  2.85332000E+00  9.05661000E-01
  2.55611000E-01  8.45000000E-02  1.29200000E+00  6.29348000E+03  9.49044000E+02
  2.18776000E+02  6.36916000E+01  1.88282000E+01  2.72023000E+00  3.06331000E+01
  7.02614000E+00  2.11205000E+00  6.84009000E-01  2.00878000E-01  6.39000000E-02
  9.13000000E-01  3.38650000E+01  5.09479000E+00  1.15879000E+00  3.25840000E-01
  1.02741000E-01  7.50000000E-01  3.38650000E+01  5.09479000E+00  1.15879000E+00
  3.25840000E-01  1.02741000E-01  7.50000000E-01
Contraction coefficients                   R   N=         128
  1.96665025E-03  1.52306019E-02  7.61269097E-02  2.60801033E-01  6.16462078E-01
  2.21006028E-01  1.14660081E-01  9.19999648E-01 -3.03068213E-03  1.00000000E+00
  1.00000000E+00  1.00000000E+00  1.00000000E+00  1.96665025E-03  1.52306019E-02
  7.61269097E-02  2.60801033E-01  6.16462078E-01  2.21006028E-01  1.14660081E-01
  9.19999648E-01 -3.03068213E-03  1.00000000E+00  1.00000000E+00  1.00000000E+00
  1.00000000E+00  1.96665025E-03  1.52306019E-02  7.61269097E-02  2.60801033E-01
  6.16462078E-01  2.21006028E-01  1.14660081E-01  9.19999648E-01 -3.03068213E-03
  1.00000000E+00  1.00000000E+00  1.00000000E+00  1.00000000E+00  1.96665025E-03
  1.52306019E-02  7.61269097E-02  2.60801033E-01  6.16462078E-01  2.21006028E-01
  1.14660081E-01  9.19999648E-01 -3.03068213E-03  1.00000000E+00  1.00000000E+00
  1.00000000E+00  1.00000000E+00  1.96978815E-03  1.49612859E-02  7.35005308E-02
  2.48936766E-01  6.02459433E-01  2.56201759E-01  1.11906080E-01  9.21666655E-01
 -2.56919183E-03  1.00000000E+00  1.00000000E+00  1.00000000E+00  1.00000000E+00
  2.54938145E-02  1.90373109E-01  8.52161486E-01  1.00000000E+00  1.00000000E+00
  1.00000000E+00  2.54938145E-02  1.90373109E-01  8.52161486E-01  1.00000000E+00
  1.00000000E+00  1.00000000E+00  1.89515008E-03  1.43859006E-02  7.07320031E-02
  2.40001011E-01  5.94797026E-01  2.80802012E-01  1.13889012E-01  9.20811101E-01
 -3.27447036E-03  1.00000000E+00  1.00000000E+00  1.00000000E+00  1.00000000E+00
  1.89515008E-03  1.43859006E-02  7.07320031E-02  2.40001011E-01  5.94797026E-01
  2.80802012E-01  1.13889012E-01  9.20811101E-01 -3.27447036E-03  1.00000000E+00
  1.00000000E+00  1.00000000E+00  1.00000000E+00  1.96978815E-03  1.49612859E-02
  7.35005308E-02  2.48936766E-01  6.02459433E-01  2.56201759E-01  1.11906080E-01
  9.21666655E-01 -2.56919183E-03  1.00000000E+00  1.00000000E+00  1.00000000E+00
  1.00000000E+00  2.54938145E-02  1.90373109E-01  8.52161486E-01  1.00000000E+00
  1.00000000E+00  1.00000000E+00  2.54938145E-02  1.90373109E-01  8.52161486E-01
  1.00000000E+00  1.00000000E+00  1.00000000E+00
P(S=P) Contraction coefficients            R   N=         128
  0.00000000E+00  0.00000000E+00  0.00000000E+00  0.00000000E+00  0.00000000E+00
  0.00000000E+00  4.02486927E-02  2.37593957E-01  8.15853851E-01  1.00000000E+00
  1.00000000E+00  1.00000000E+00  0.00000000E+00  0.00000000E+00  0.00000000E+00
  0.00000000E+00  0.00000000E+00  0.00000000E+00  0.00000000E+00  4.02486927E-02
  2.37593957E-01  8.15853851E-01  1.00000000E+00  1.00000000E+00  1.00000000E+00
  0.00000000E+00  0.00000000E+00  0.00000000E+00  0.00000000E+00  0.00000000E+00
  0.00000000E+00  0.00000000E+00  4.02486927E-02  2.37593957E-01  8.15853851E-01
  1.00000000E+00  1.00000000E+00  1.00000000E+00  0.00000000E+00  0.00000000E+00
  0.00000000E+00  0.00000000E+00  0.00000000E+00  0.00000000E+00  0.00000000E+00
  4.02486927E-02  2.37593957E-01  8.15853851E-01  1.00000000E+00  1.00000000E+00
  1.00000000E+00  0.00000000E+00  0.00000000E+00  0.00000000E+00  0.00000000E+00
  0.00000000E+00  0.00000000E+00  0.00000000E+00  3.83119186E-02  2.37403116E-01
  8.17592398E-01  1.00000000E+00  1.00000000E+00  1.00000000E+00  0.00000000E+00
  0.00000000E+00  0.00000000E+00  0.00000000E+00  0.00000000E+00  0.00000000E+00
  0.00000000E+00  0.00000000E+00  0.00000000E+00  0.00000000E+00  0.00000000E+00
  0.00000000E+00  0.00000000E+00  0.00000000E+00  0.00000000E+00  0.00000000E+00
  0.00000000E+00  0.00000000E+00  0.00000000E+00  3.65113974E-02  2.37152983E-01
  8.19701941E-01  1.00000000E+00  1.00000000E+00  1.00000000E+00  0.00000000E+00
  0.00000000E+00  0.00000000E+00  0.00000000E+00  0.00000000E+00  0.00000000E+00
  0.00000000E+00  3.65113974E-02  2.37152983E-01  8.19701941E-01  1.00000000E+00
  1.00000000E+00  1.00000000E+00  0.00000000E+00  0.00000000E+00  0.00000000E+00
  0.00000000E+00  0.00000000E+00  0.00000000E+00  0.00000000E+00  3.83119186E-02
  2.37403116E-01  8.17592398E-01  1.00000000E+00  1.00000000E+00  1.00000000E+00
  0.00000000E+00  0.00000000E+00  0.00000000E+00  0.00000000E+00  0.00000000E+00
  0.00000000E+00  0.00000000E+00  0.00000000E+00  0.00000000E+00  0.00000000E+00
  0.00000000E+00  0.00000000E+00  0.00000000E+00
Coordinates of each shell                  R   N=         192
 -2.32082088E+00  6.83688026E-01 -4.83430147E-32 -2.32082088E+00  6.83688026E-01
 -4.83430147E-32 -2.32082088E+00  6.83688026E-01 -4.83430147E-32 -2.32082088E+00
  6.83688026E-01 -4.83430147E-32 -2.32082088E+00  6.83688026E-01 -4.83430147E-32
 -2.32082088E+00  6.83688026E-01 -4.83430147E-32  1.04504278E-01 -3.21202649E+00
  2.17683833E-33  1.04504278E-01 -3.21202649E+00  2.17683833E-33  1.04504278E-01
 -3.21202649E+00  2.17683833E-33  1.04504278E-01 -3.21202649E+00  2.17683833E-33
  1.04504278E-01 -3.21202649E+00  2.17683833E-33  1.04504278E-01 -3.21202649E+00
  2.17683833E-33  2.33271789E+00 -2.01235477E+00  4.85908310E-32  2.33271789E+00
 -2.01235477E+00  4.85908310E-32  2.33271789E+00 -2.01235477E+00  4.85908310E-32
  2.33271789E+00 -2.01235477E+00  4.85908310E-32  2.33271789E+00 -2.01235477E+00
  4.85908310E-32  2.33271789E+00 -2.01235477E+00  4.85908310E-32  2.40061256E+00
  7.38901245E-01  5.00050863E-32  2.40061256E+00  7.38901245E-01  5.00050863E-32
  2.40061256E+00  7.38901245E-01  5.00050863E-32  2.40061256E+00  7.38901245E-01
  5.00050863E-32  2.40061256E+00  7.38901245E-01  5.00050863E-32  2.40061256E+00
  7.38901245E-01  5.00050863E-32 -1.00638929E-17  1.86457492E+00  0.00000000E+00
 -1.00638929E-17  1.86457492E+00  0.00000000E+00 -1.00638929E-17  1.86457492E+00
  0.00000000E+00 -1.00638929E-17  1.86457492E+00  0.00000000E+00 -1.00638929E-17
  1.86457492E+00  0.00000000E+00 -1.00638929E-17  1.86457492E+00  0.00000000E+00
 -4.95601515E-02 -5.25104023E+00 -1.03234470E-33 -4.95601515E-02 -5.25104023E+00
 -1.03234470E-33 -4.95601515E-02 -5.25104023E+00 -1.03234470E-33 -4.95601515E-02
 -5.25104023E+00 -1.03234470E-33  4.10553591E+00 -3.01766444E+00  8.55188715E-32
  4.10553591E+00 -3.01766444E+00  8.55188715E-32  4.10553591E+00 -3.01766444E+00
  8.55188715E-32  4.10553591E+00 -3.01766444E+00  8.55188715E-32  4.28280045E+00
  2.03441170E+00  8.92113160E-32  4.28280045E+00  2.03441170E+00  8.92113160E-32
  4.28280045E+00  2.03441170E+00  8.92113160E-32  4.28280045E+00  2.03441170E+00
  8.92113160E-32  4.28280045E+00  2.03441170E+00  8.92113160E-32  4.28280045E+00
  2.03441170E+00  8.92113160E-32 -4.31547742E+00  1.79065843E+00 -8.98919817E-32
 -4.31547742E+00  1.79065843E+00 -8.98919817E-32 -4.31547742E+00  1.79065843E+00
 -8.98919817E-32 -4.31547742E+00  1.79065843E+00 -8.98919817E-32 -4.31547742E+00
  1.79065843E+00 -8.98919817E-32 -4.31547742E+00  1.79065843E+00 -8.98919817E-32
 -2.14855062E+00 -1.92840061E+00 -4.47546018E-32 -2.14855062E+00 -1.92840061E+00
 -4.47546018E-32 -2.14855062E+00 -1.92840061E+00 -4.47546018E-32 -2.14855062E+00
 -1.92840061E+00 -4.47546018E-32 -2.14855062E+00 -1.92840061E+00 -4.47546018E-32
 -2.14855062E+00 -1.92840061E+00 -4.47546018E-32 -3.81547315E+00 -2.85068137E+00
 -7.94768248E-32 -3.81547315E+00 -2.85068137E+00 -7.94768248E-32 -3.81547315E+00
 -2.85068137E+00 -7.94768248E-32 -3.81547315E+00 -2.85068137E+00 -7.94768248E-32
 -4.13156401E-02  3.77635683E+00 -8.60610404E-34 -4.13156401E-02  3.77635683E+00
 -8.60610404E-34 -4.13156401E-02  3.77635683E+00 -8.60610404E-34 -4.13156401E-02
  3.77635683E+00 -8.60610404E-34
Num ILSW                                   I              100
ILSW                                       I   N=         100
           0           0           0           0           2           0
           0           0           0           0       20419          -1
           5           0           0           0           2           0
           0           0           0           0           1           0
           1           0           0           0           0           0
           0           0      100000           0          -1           0
           0           0           0           0           0           0
           0           0           0           1           0           0
           0 -2000000000           1           0           0           0
           0           0           4          52           0           0
           0           0          40           0           0           0
           0           0           0          12           0           1
           0           0           0           0           0           0
           0           0           0           0           0           0
           0           0           0           0           0           0
           0           0           0           0           0           0
           0           0           0           0
Num RLSW                                   I               52
RLSW                                       R   N=          52
  1.00000000E+00  1.00000000E+00  1.00000000E+00  8.10000000E-01  1.00000000E+00
  0.00000000E+00  3.30000000E-01  1.90000000E-01  0.00000000E+00  4.60000000E-01
  0.00000000E+00  3.30000000E-01  1.90000000E-01  0.00000000E+00  4.60000000E-01
  0.00000000E+00  0.00000000E+00  1.00000000E+00  0.00000000E+00  0.00000000E+00
  0.00000000E+00  0.00000000E+00  1.00000000E+00  0.00000000E+00  0.00000000E+00
  0.00000000E+00  0.00000000E+00  1.00000000E+00  0.00000000E+00  0.00000000E+00
  0.00000000E+00  0.00000000E+00  1.00000000E+00  0.00000000E+00  0.00000000E+00
  0.00000000E+00  0.00000000E+00  0.00000000E+00  1.00000000E+00  1.00000000E+00
  0.00000000E+00  1.00000000E+00  0.00000000E+00  0.00000000E+00  0.00000000E+00
  0.00000000E+00  0.00000000E+00  0.00000000E+00  0.00000000E+00  0.00000000E+00
  0.00000000E+00  0.00000000E+00
MxBond                                     I                3
NBond                                      I   N=          12
           3           3           3           3           3           1
           1           1           1           3           1           1
IBond                                      I   N=          36
           5           9          10           3           6          10
           2           4           7           3           5           8
           1           4          12           2           0           0
           3           0           0           4           0           0
           1           0           0           1           2          11
          10           0           0           5           0           0
RBond                                      R   N=          36
  1.41000000E+00  2.00000000E+00  1.00000000E+00  2.00000000E+00  1.00000000E+00
  1.00000000E+00  2.00000000E+00  1.00000000E+00  1.00000000E+00  1.00000000E+00
  1.00000000E+00  2.00000000E+00  1.41000000E+00  1.00000000E+00  1.00000000E+00
  1.00000000E+00  0.00000000E+00  0.00000000E+00  1.00000000E+00  0.00000000E+00
  0.00000000E+00  2.00000000E+00  0.00000000E+00  0.00000000E+00  2.00000000E+00
  0.00000000E+00  0.00000000E+00  1.00000000E+00  1.00000000E+00  1.00000000E+00
  1.00000000E+00  0.00000000E+00  0.00000000E+00  1.00000000E+00  0.00000000E+00
  0.00000000E+00
Virial Ratio                               R      2.002923505476431E+00
SCF Energy                                 R     -4.147700719492792E+02
Total Energy                               R     -4.147700719492792E+02
RMS Force                                  R      8.995947686474505E-05
RMS Density                                R      8.400764071521595E-09
NImag                                      I                0
Job Status                                 I                1
Nuclear derivative order                   I                2
External E-field                           R   N=          35
  0.00000000E+00  0.00000000E+00  0.00000000E+00  0.00000000E+00  0.00000000E+00
  0.00000000E+00  0.00000000E+00  0.00000000E+00  0.00000000E+00  0.00000000E+00
  0.00000000E+00  0.00000000E+00  0.00000000E+00  0.00000000E+00  0.00000000E+00
  0.00000000E+00  0.00000000E+00  0.00000000E+00  0.00000000E+00  0.00000000E+00
  0.00000000E+00  0.00000000E+00  0.00000000E+00  0.00000000E+00  0.00000000E+00
  0.00000000E+00  0.00000000E+00  0.00000000E+00  0.00000000E+00  0.00000000E+00
  0.00000000E+00  0.00000000E+00  0.00000000E+00  0.00000000E+00  0.00000000E+00
IOpCl                                      I                0
IROHF                                      I                0
Alpha Orbital Energies                     R   N=         200
 -1.91904307E+01 -1.91849757E+01 -1.44687150E+01 -1.44513673E+01 -1.04148527E+01
 -1.03805760E+01 -1.03415710E+01 -1.02738579E+01 -1.18339032E+00 -1.14825445E+00
 -1.08179878E+00 -1.02633886E+00 -8.98507649E-01 -7.85017001E-01 -7.56227578E-01
 -6.87601732E-01 -6.50625481E-01 -6.06927364E-01 -5.73769411E-01 -5.58325919E-01
 -5.37367327E-01 -5.08082169E-01 -5.02517306E-01 -4.93918628E-01 -4.52722606E-01
 -3.81016758E-01 -3.65520386E-01 -3.48668423E-01 -3.24500572E-01 -1.30507856E-02
  6.07680763E-03  3.65852652E-02  4.03543408E-02  4.19604797E-02  5.99244537E-02
  6.58548337E-02  7.89616787E-02  8.35661106E-02  9.74752018E-02  1.11097084E-01
  1.12238134E-01  1.18358854E-01  1.40789666E-01  1.45185788E-01  1.52855800E-01
  1.57299025E-01  1.68218938E-01  1.71320377E-01  1.81284940E-01  1.94037256E-01
  2.06816341E-01  2.13262206E-01  2.23420850E-01  2.31324804E-01  2.39929589E-01
  2.53605668E-01  2.60234367E-01  2.78187689E-01  2.85654430E-01  2.91251084E-01
  2.91795983E-01  2.99129009E-01  3.17223033E-01  3.39606100E-01  3.43511516E-01
  3.44210686E-01  3.52277256E-01  3.54439340E-01  3.68062762E-01  3.96903272E-01
  4.08947500E-01  4.27841600E-01  4.60748089E-01  5.02889002E-01  5.22563259E-01
  5.63107397E-01  5.71919865E-01  5.80073703E-01  6.06428683E-01  6.26391718E-01
  6.26644218E-01  6.54213521E-01  6.55851307E-01  6.86396013E-01  7.06781234E-01
  7.40165911E-01  7.59436685E-01  7.70460839E-01  7.96121298E-01  8.18488078E-01
  8.23510708E-01  8.52456373E-01  8.54572324E-01  8.95880109E-01  8.96500013E-01
  8.99337387E-01  9.39305247E-01  9.86023030E-01  1.04746449E+00  1.06003911E+00
  1.07573471E+00  1.09347148E+00  1.13807131E+00  1.16053411E+00  1.19074410E+00
  1.20208573E+00  1.20427709E+00  1.22140446E+00  1.23539157E+00  1.24035767E+00
  1.25065857E+00  1.28558376E+00  1.29619208E+00  1.33443112E+00  1.35260366E+00
  1.38359021E+00  1.53655334E+00  1.56285428E+00  1.60073237E+00  1.61930999E+00
  1.67194775E+00  1.69359712E+00  1.69903290E+00  1.72478823E+00  1.73484079E+00
  1.77094034E+00  1.79765808E+00  1.80748975E+00  1.84633121E+00  1.87335653E+00
  1.90347319E+00  1.96300915E+00  1.98495497E+00  1.99018834E+00  2.03477235E+00
  2.06952651E+00  2.11041059E+00  2.11971662E+00  2.26782847E+00  2.28351382E+00
  2.31350327E+00  2.38502824E+00  2.39910219E+00  2.45637354E+00  2.48904195E+00
  2.54960415E+00  2.56826203E+00  2.64349434E+00  2.67928914E+00  2.72287258E+00
  2.75014392E+00  2.76016807E+00  2.78855020E+00  2.82942851E+00  2.86152449E+00
  2.90887556E+00  2.92856425E+00  2.94883506E+00  2.97870123E+00  2.98613102E+00
  2.99627078E+00  3.00976717E+00  3.02625245E+00  3.08714064E+00  3.19298630E+00
  3.21201666E+00  3.42949152E+00  3.44058337E+00  3.45103498E+00  3.48279329E+00
  3.53489709E+00  3.57016378E+00  3.62446881E+00  3.68191454E+00  3.71831657E+00
  3.75912250E+00  3.87977205E+00  3.92162188E+00  3.92695259E+00  4.05677101E+00
  4.12353947E+00  4.25907097E+00  4.76638061E+00  4.86979729E+00  4.92692111E+00
  5.10079463E+00  5.12829355E+00  5.21072774E+00  5.25830187E+00  5.41315612E+00
  5.82534545E+00  5.86468912E+00  2.37462677E+01  2.38960303E+01  2.39513060E+01
  2.42555716E+01  3.56151146E+01  3.56706613E+01  5.00473456E+01  5.00964093E+01
Alpha MO coefficients                      R   N=       40000
 -2.60394611E-05  8.88448004E-05 -3.83225593E-04  2.14802265E-04  0.00000000E+00
  4.91823869E-04  1.12655944E-03 -6.23587573E-04  0.00000000E+00  4.72598752E-03
 -1.03692659E-02  5.91691455E-03  0.00000000E+00  2.35385963E-03  1.13896146E-03
 -4.73132032E-04  0.00000000E+00  2.38656997E-04  0.00000000E+00  0.00000000E+00
 -5.73155297E-04  9.20513865E-04 -8.25324864E-06  4.20878869E-05 -1.03650997E-04
  6.75326708E-05  0.00000000E+00 -3.94511035E-04  6.32317988E-04 -3.06741040E-04
  0.00000000E+00 -9.25364002E-05  6.24538612E-04  1.63443492E-03  0.00000000E+00
 -3.97751835E-03 -1.22418723E-04 -2.38444465E-04  0.00000000E+00 -5.96822669E-05
  0.00000000E+00  0.00000000E+00  7.31728471E-05  2.23053568E-04 -4.97213820E-06
  2.12451540E-05 -4.19397741E-05  8.19454780E-06  0.00000000E+00  1.45803617E-05
  3.15535089E-04  2.73685140E-06  0.00000000E+00 -2.68872529E-03  1.32283842E-03
 -7.85775429E-04  0.00000000E+00  3.44223831E-03 -4.57791754E-04 -3.96877645E-04
  0.00000000E+00  6.48384837E-05  0.00000000E+00  0.00000000E+00  6.84801032E-06
 -1.33013324E-04 -9.01788585E-06  4.59697279E-05 -1.09656358E-04  2.16732756E-05
  0.00000000E+00 -3.67995850E-04  5.27731309E-04 -1.62793342E-04  0.00000000E+00
 -1.71497280E-03 -1.36328903E-03 -1.71122506E-03  0.00000000E+00 -4.15323434E-03
  5.61656968E-04  4.76001524E-04  0.00000000E+00 -9.99601717E-07  0.00000000E+00
  0.00000000E+00 -1.68163356E-04  2.20000809E-06 -5.43094908E-06  6.03830448E-05
 -9.97726914E-05 -2.47396065E-05  0.00000000E+00 -4.36773660E-04  3.95922940E-04
  1.97401561E-04  0.00000000E+00  2.50492783E-03  7.14498823E-04 -2.84630829E-03
  0.00000000E+00  1.89881747E-03  2.26345988E-03 -7.36611785E-04  0.00000000E+00
  2.21175461E-05  0.00000000E+00  0.00000000E+00 -2.05449667E-04 -6.33691512E-05
 -8.46480686E-05  5.18717215E-04  5.32715612E-04  5.38933142E-06  1.77924727E-05
  0.00000000E+00 -1.73075668E-05 -2.80621955E-04 -4.15513509E-04  5.98564620E-05
 -3.19010708E-05  0.00000000E+00 -3.51134611E-04 -2.76995749E-04 -1.36125981E-05
  2.79065756E-06  0.00000000E+00 -2.19935353E-04  7.81153860E-05  2.18556766E-06
  0.00000000E+00  1.30959941E-03 -4.85469495E-04 -1.50855505E-04  0.00000000E+00
  8.20651384E-04  1.26526697E-04 -4.40289017E-04  0.00000000E+00  2.42409565E-06
  0.00000000E+00  0.00000000E+00 -2.74313579E-06  3.18225435E-06  5.51656515E-01
  4.69331623E-01  1.08488967E-03 -6.15650107E-04  0.00000000E+00  1.42687679E-02
  7.84321912E-04 -4.23990088E-04  0.00000000E+00 -1.38564934E-02 -2.71030313E-03
  1.46341336E-03  0.00000000E+00 -1.41796271E-03 -1.07178701E-03  7.23403431E-04
  0.00000000E+00 -1.67160532E-04  0.00000000E+00  0.00000000E+00  1.46218435E-04
 -2.36017002E-04 -5.24994139E-06  6.00127493E-05 -3.87046176E-05  1.00767930E-04
  0.00000000E+00 -4.50465237E-04  7.79958382E-05 -4.64764025E-04  0.00000000E+00
  2.56135146E-03  2.75412290E-03  1.00011590E-03  0.00000000E+00  1.34629244E-03
  1.07146220E-03 -8.33097013E-04  0.00000000E+00  6.71508109E-06  0.00000000E+00