Thymine distortion                                                      
SP        RCAM-B3LYP TD-FC                                            6-311+G(d,p)        
Number of atoms                            I               15
Info1-9                                    I   N=           9
          24          24           0           0           0         110
           1         218        4001
Full Title                                 C   N=           2
Thymine distortion      
Route                                      C   N=           5
#p td=(nstates=10) cam-b3lyp/6-311+g(d,p) symm=loose        
Charge                                     I                0
Multiplicity                               I                1
Number of electrons                        I               66
Number of alpha electrons                  I               33
Number of beta electrons                   I               33
Number of basis functions                  I              234
Number of independent functions            I              234
Number of point charges in /Mol/           I                0
Number of translation vectors              I                0
Atomic numbers                             I   N=          15
           7           6           7           6           6           6
           8           8           1           1           6           1
           1           1           1
Nuclear charges                            R   N=          15
  7.00000000E+00  6.00000000E+00  7.00000000E+00  6.00000000E+00  6.00000000E+00
  6.00000000E+00  8.00000000E+00  8.00000000E+00  1.00000000E+00  1.00000000E+00
  6.00000000E+00  1.00000000E+00  1.00000000E+00  1.00000000E+00  1.00000000E+00
Current cartesian coordinates              R   N=          45
 -2.10902962E+00 -2.33832330E+00  1.46678740E-02 -3.15981195E+00  4.75045356E-02
  2.99265322E-03 -1.37033956E+00  1.94270516E+00 -5.16589703E-03  1.25970530E+00
  1.68981572E+00 -2.85949402E-03  2.17437103E+00 -9.23015014E-01  9.82581857E-03
  4.55864723E-01 -2.78430753E+00  1.78568131E-02 -5.41173866E+00  4.25513356E-01
  2.57747332E-04  2.60021955E+00  3.54448752E+00 -1.10186528E-02 -3.35690977E+00
 -3.77717731E+00  2.09097788E-02 -2.05129196E+00  3.72938377E+00 -1.38651093E-02
  4.96862542E+00 -1.34520110E+00  1.30000094E-02  9.71571758E-01 -4.74264611E+00
 -2.73581949E-01  5.41230964E+00 -3.35794451E+00  2.26611220E-02  5.84046758E+00
 -4.83330366E-01 -1.64635443E+00  5.83906276E+00 -4.67745247E-01  1.66490919E+00
Number of symbols in /Mol/                 I                0
Force Field                                I                0
Atom Types                                 C   N=          15
                                                            
                                                            
                                                            
Int Atom Types                             I   N=          15
           0           0           0           0           0           0
           0           0           0           0           0           0
           0           0           0
MM charges                                 R   N=          15
  0.00000000E+00  0.00000000E+00  0.00000000E+00  0.00000000E+00  0.00000000E+00
  0.00000000E+00  0.00000000E+00  0.00000000E+00  0.00000000E+00  0.00000000E+00
  0.00000000E+00  0.00000000E+00  0.00000000E+00  0.00000000E+00  0.00000000E+00
Integer atomic weights                     I   N=          15
          14          12          14          12          12          12
          16          16           1           1          12           1
           1           1           1
Real atomic weights                        R   N=          15
  1.40030740E+01  1.20000000E+01  1.40030740E+01  1.20000000E+01  1.20000000E+01
  1.20000000E+01  1.59949146E+01  1.59949146E+01  1.00782504E+00  1.00782504E+00
  1.20000000E+01  1.00782504E+00  1.00782504E+00  1.00782504E+00  1.00782504E+00
Atom fragment info                         I   N=          15
           0           0           0           0           0           0
           0           0           0           0           0           0
           0           0           0
Atom residue num                           I   N=          15
           0           0           0           0           0           0
           0           0           0           0           0           0
           0           0           0
Nuclear spins                              I   N=          15
           2           0           2           0           0           0
           0           0           1           1           0           1
           1           1           1
Nuclear ZEff                               R   N=          15
 -4.55000000E+00 -3.60000000E+00 -4.55000000E+00 -3.60000000E+00 -3.60000000E+00
 -3.60000000E+00 -5.60000000E+00 -5.60000000E+00 -1.00000000E+00 -1.00000000E+00
 -3.60000000E+00 -1.00000000E+00 -1.00000000E+00 -1.00000000E+00 -1.00000000E+00
Nuclear ZNuc                               R   N=          15
  7.00000000E+00  6.00000000E+00  7.00000000E+00  6.00000000E+00  6.00000000E+00
  6.00000000E+00  8.00000000E+00  8.00000000E+00  1.00000000E+00  1.00000000E+00
  6.00000000E+00  1.00000000E+00  1.00000000E+00  1.00000000E+00  1.00000000E+00
Nuclear QMom                               R   N=          15
  2.04400000E+00  0.00000000E+00  2.04400000E+00  0.00000000E+00  0.00000000E+00
  0.00000000E+00  0.00000000E+00  0.00000000E+00  0.00000000E+00  0.00000000E+00
  0.00000000E+00  0.00000000E+00  0.00000000E+00  0.00000000E+00  0.00000000E+00
Nuclear GFac                               R   N=          15
  4.03761000E-01  0.00000000E+00  4.03761000E-01  0.00000000E+00  0.00000000E+00
  0.00000000E+00  0.00000000E+00  0.00000000E+00  2.79284600E+00  2.79284600E+00
  0.00000000E+00  2.79284600E+00  2.79284600E+00  2.79284600E+00  2.79284600E+00
MicOpt                                     I   N=          15
          -1          -1          -1          -1          -1          -1
          -1          -1          -1          -1          -1          -1
          -1          -1          -1
Number of residues                         I                0
Number of secondary structures             I                0
SymInf integers                            I   N=          26
           1           1           1           1           1           0
           0           0           0           0           0           0
           0           0           0           0           0           0
           0           0           0           0           0           0
           0           0
RotTr to input orientation                 R   N=          12
 -9.99955092E-01 -9.47395421E-03 -2.42195798E-04 -9.47671849E-03  9.99807177E-01
  1.71988419E-02  7.92080561E-05  1.72003648E-02 -9.99852060E-01 -1.11990487E-02
 -1.01159175E-02 -1.97493691E-02
Number of contracted shells                I               78
Number of primitive shells                 I              153
Pure/Cartesian d shells                    I                0
Pure/Cartesian f shells                    I                0
Highest angular momentum                   I                2
Largest degree of contraction              I                6
Shell types                                I   N=          78
           0          -1          -1          -1          -1          -2
           0          -1          -1          -1          -1          -2
           0          -1          -1          -1          -1          -2
           0          -1          -1          -1          -1          -2
           0          -1          -1          -1          -1          -2
           0          -1          -1          -1          -1          -2
           0          -1          -1          -1          -1          -2
           0          -1          -1          -1          -1          -2
           0           0           0           1           0           0
           0           1           0          -1          -1          -1
          -1          -2           0           0           0           1
           0           0           0           1           0           0
           0           1           0           0           0           1
Number of primitives per shell             I   N=          78
           6           3           1           1           1           1
           6           3           1           1           1           1
           6           3           1           1           1           1
           6           3           1           1           1           1
           6           3           1           1           1           1
           6           3           1           1           1           1
           6           3           1           1           1           1
           6           3           1           1           1           1
           3           1           1           1           3           1
           1           1           6           3           1           1
           1           1           3           1           1           1
           3           1           1           1           3           1
           1           1           3           1           1           1
Shell to atom map                          I   N=          78
           1           1           1           1           1           1
           2           2           2           2           2           2
           3           3           3           3           3           3
           4           4           4           4           4           4
           5           5           5           5           5           5
           6           6           6           6           6           6
           7           7           7           7           7           7
           8           8           8           8           8           8
           9           9           9           9          10          10
          10          10          11          11          11          11
          11          11          12          12          12          12
          13          13          13          13          14          14
          14          14          15          15          15          15
Primitive exponents                        R   N=         153
  6.29348000E+03  9.49044000E+02  2.18776000E+02  6.36916000E+01  1.88282000E+01
  2.72023000E+00  3.06331000E+01  7.02614000E+00  2.11205000E+00  6.84009000E-01
  2.00878000E-01  6.39000000E-02  9.13000000E-01  4.56324000E+03  6.82024000E+02
  1.54973000E+02  4.44553000E+01  1.30290000E+01  1.82773000E+00  2.09642000E+01
  4.80331000E+00  1.45933000E+00  4.83456000E-01  1.45585000E-01  4.38000000E-02
  6.26000000E-01  6.29348000E+03  9.49044000E+02  2.18776000E+02  6.36916000E+01
  1.88282000E+01  2.72023000E+00  3.06331000E+01  7.02614000E+00  2.11205000E+00
  6.84009000E-01  2.00878000E-01  6.39000000E-02  9.13000000E-01  4.56324000E+03
  6.82024000E+02  1.54973000E+02  4.44553000E+01  1.30290000E+01  1.82773000E+00
  2.09642000E+01  4.80331000E+00  1.45933000E+00  4.83456000E-01  1.45585000E-01
  4.38000000E-02  6.26000000E-01  4.56324000E+03  6.82024000E+02  1.54973000E+02
  4.44553000E+01  1.30290000E+01  1.82773000E+00  2.09642000E+01  4.80331000E+00
  1.45933000E+00  4.83456000E-01  1.45585000E-01  4.38000000E-02  6.26000000E-01
  4.56324000E+03  6.82024000E+02  1.54973000E+02  4.44553000E+01  1.30290000E+01
  1.82773000E+00  2.09642000E+01  4.80331000E+00  1.45933000E+00  4.83456000E-01
  1.45585000E-01  4.38000000E-02  6.26000000E-01  8.58850000E+03  1.29723000E+03
  2.99296000E+02  8.73771000E+01  2.56789000E+01  3.74004000E+00  4.21175000E+01
  9.62837000E+00  2.85332000E+00  9.05661000E-01  2.55611000E-01  8.45000000E-02
  1.29200000E+00  8.58850000E+03  1.29723000E+03  2.99296000E+02  8.73771000E+01
  2.56789000E+01  3.74004000E+00  4.21175000E+01  9.62837000E+00  2.85332000E+00
  9.05661000E-01  2.55611000E-01  8.45000000E-02  1.29200000E+00  3.38650000E+01
  5.09479000E+00  1.15879000E+00  3.25840000E-01  1.02741000E-01  7.50000000E-01
  3.38650000E+01  5.09479000E+00  1.15879000E+00  3.25840000E-01  1.02741000E-01
  7.50000000E-01  4.56324000E+03  6.82024000E+02  1.54973000E+02  4.44553000E+01
  1.30290000E+01  1.82773000E+00  2.09642000E+01  4.80331000E+00  1.45933000E+00
  4.83456000E-01  1.45585000E-01  4.38000000E-02  6.26000000E-01  3.38650000E+01
  5.09479000E+00  1.15879000E+00  3.25840000E-01  1.02741000E-01  7.50000000E-01
  3.38650000E+01  5.09479000E+00  1.15879000E+00  3.25840000E-01  1.02741000E-01
  7.50000000E-01  3.38650000E+01  5.09479000E+00  1.15879000E+00  3.25840000E-01
  1.02741000E-01  7.50000000E-01  3.38650000E+01  5.09479000E+00  1.15879000E+00
  3.25840000E-01  1.02741000E-01  7.50000000E-01
Contraction coefficients                   R   N=         153
  1.96978815E-03  1.49612859E-02  7.35005308E-02  2.48936766E-01  6.02459433E-01
  2.56201759E-01  1.11906080E-01  9.21666655E-01 -2.56919183E-03  1.00000000E+00
  1.00000000E+00  1.00000000E+00  1.00000000E+00  1.96665025E-03  1.52306019E-02
  7.61269097E-02  2.60801033E-01  6.16462078E-01  2.21006028E-01  1.14660081E-01
  9.19999648E-01 -3.03068213E-03  1.00000000E+00  1.00000000E+00  1.00000000E+00
  1.00000000E+00  1.96978815E-03  1.49612859E-02  7.35005308E-02  2.48936766E-01
  6.02459433E-01  2.56201759E-01  1.11906080E-01  9.21666655E-01 -2.56919183E-03
  1.00000000E+00  1.00000000E+00  1.00000000E+00  1.00000000E+00  1.96665025E-03
  1.52306019E-02  7.61269097E-02  2.60801033E-01  6.16462078E-01  2.21006028E-01
  1.14660081E-01  9.19999648E-01 -3.03068213E-03  1.00000000E+00  1.00000000E+00
  1.00000000E+00  1.00000000E+00  1.96665025E-03  1.52306019E-02  7.61269097E-02
  2.60801033E-01  6.16462078E-01  2.21006028E-01  1.14660081E-01  9.19999648E-01
 -3.03068213E-03  1.00000000E+00  1.00000000E+00  1.00000000E+00  1.00000000E+00
  1.96665025E-03  1.52306019E-02  7.61269097E-02  2.60801033E-01  6.16462078E-01
  2.21006028E-01  1.14660081E-01  9.19999648E-01 -3.03068213E-03  1.00000000E+00
  1.00000000E+00  1.00000000E+00  1.00000000E+00  1.89515008E-03  1.43859006E-02
  7.07320031E-02  2.40001011E-01  5.94797026E-01  2.80802012E-01  1.13889012E-01
  9.20811101E-01 -3.27447036E-03  1.00000000E+00  1.00000000E+00  1.00000000E+00
  1.00000000E+00  1.89515008E-03  1.43859006E-02  7.07320031E-02  2.40001011E-01
  5.94797026E-01  2.80802012E-01  1.13889012E-01  9.20811101E-01 -3.27447036E-03
  1.00000000E+00  1.00000000E+00  1.00000000E+00  1.00000000E+00  2.54938145E-02
  1.90373109E-01  8.52161486E-01  1.00000000E+00  1.00000000E+00  1.00000000E+00
  2.54938145E-02  1.90373109E-01  8.52161486E-01  1.00000000E+00  1.00000000E+00
  1.00000000E+00  1.96665025E-03  1.52306019E-02  7.61269097E-02  2.60801033E-01
  6.16462078E-01  2.21006028E-01  1.14660081E-01  9.19999648E-01 -3.03068213E-03
  1.00000000E+00  1.00000000E+00  1.00000000E+00  1.00000000E+00  2.54938145E-02
  1.90373109E-01  8.52161486E-01  1.00000000E+00  1.00000000E+00  1.00000000E+00
  2.54938145E-02  1.90373109E-01  8.52161486E-01  1.00000000E+00  1.00000000E+00
  1.00000000E+00  2.54938145E-02  1.90373109E-01  8.52161486E-01  1.00000000E+00
  1.00000000E+00  1.00000000E+00  2.54938145E-02  1.90373109E-01  8.52161486E-01
  1.00000000E+00  1.00000000E+00  1.00000000E+00
P(S=P) Contraction coefficients            R   N=         153
  0.00000000E+00  0.00000000E+00  0.00000000E+00  0.00000000E+00  0.00000000E+00
  0.00000000E+00  3.83119186E-02  2.37403116E-01  8.17592398E-01  1.00000000E+00
  1.00000000E+00  1.00000000E+00  0.00000000E+00  0.00000000E+00  0.00000000E+00
  0.00000000E+00  0.00000000E+00  0.00000000E+00  0.00000000E+00  4.02486927E-02
  2.37593957E-01  8.15853851E-01  1.00000000E+00  1.00000000E+00  1.00000000E+00
  0.00000000E+00  0.00000000E+00  0.00000000E+00  0.00000000E+00  0.00000000E+00
  0.00000000E+00  0.00000000E+00  3.83119186E-02  2.37403116E-01  8.17592398E-01
  1.00000000E+00  1.00000000E+00  1.00000000E+00  0.00000000E+00  0.00000000E+00
  0.00000000E+00  0.00000000E+00  0.00000000E+00  0.00000000E+00  0.00000000E+00
  4.02486927E-02  2.37593957E-01  8.15853851E-01  1.00000000E+00  1.00000000E+00
  1.00000000E+00  0.00000000E+00  0.00000000E+00  0.00000000E+00  0.00000000E+00
  0.00000000E+00  0.00000000E+00  0.00000000E+00  4.02486927E-02  2.37593957E-01
  8.15853851E-01  1.00000000E+00  1.00000000E+00  1.00000000E+00  0.00000000E+00
  0.00000000E+00  0.00000000E+00  0.00000000E+00  0.00000000E+00  0.00000000E+00
  0.00000000E+00  4.02486927E-02  2.37593957E-01  8.15853851E-01  1.00000000E+00
  1.00000000E+00  1.00000000E+00  0.00000000E+00  0.00000000E+00  0.00000000E+00
  0.00000000E+00  0.00000000E+00  0.00000000E+00  0.00000000E+00  3.65113974E-02
  2.37152983E-01  8.19701941E-01  1.00000000E+00  1.00000000E+00  1.00000000E+00
  0.00000000E+00  0.00000000E+00  0.00000000E+00  0.00000000E+00  0.00000000E+00
  0.00000000E+00  0.00000000E+00  3.65113974E-02  2.37152983E-01  8.19701941E-01
  1.00000000E+00  1.00000000E+00  1.00000000E+00  0.00000000E+00  0.00000000E+00
  0.00000000E+00  0.00000000E+00  0.00000000E+00  0.00000000E+00  0.00000000E+00
  0.00000000E+00  0.00000000E+00  0.00000000E+00  0.00000000E+00  0.00000000E+00
  0.00000000E+00  0.00000000E+00  0.00000000E+00  0.00000000E+00  0.00000000E+00
  0.00000000E+00  0.00000000E+00  4.02486927E-02  2.37593957E-01  8.15853851E-01
  1.00000000E+00  1.00000000E+00  1.00000000E+00  0.00000000E+00  0.00000000E+00
  0.00000000E+00  0.00000000E+00  0.00000000E+00  0.00000000E+00  0.00000000E+00
  0.00000000E+00  0.00000000E+00  0.00000000E+00  0.00000000E+00  0.00000000E+00
  0.00000000E+00  0.00000000E+00  0.00000000E+00  0.00000000E+00  0.00000000E+00
  0.00000000E+00  0.00000000E+00  0.00000000E+00  0.00000000E+00  0.00000000E+00
  0.00000000E+00  0.00000000E+00  0.00000000E+00
Coordinates of each shell                  R   N=         234
 -2.10902962E+00 -2.33832330E+00  1.46678740E-02 -2.10902962E+00 -2.33832330E+00
  1.46678740E-02 -2.10902962E+00 -2.33832330E+00  1.46678740E-02 -2.10902962E+00
 -2.33832330E+00  1.46678740E-02 -2.10902962E+00 -2.33832330E+00  1.46678740E-02
 -2.10902962E+00 -2.33832330E+00  1.46678740E-02 -3.15981195E+00  4.75045356E-02
  2.99265322E-03 -3.15981195E+00  4.75045356E-02  2.99265322E-03 -3.15981195E+00
  4.75045356E-02  2.99265322E-03 -3.15981195E+00  4.75045356E-02  2.99265322E-03
 -3.15981195E+00  4.75045356E-02  2.99265322E-03 -3.15981195E+00  4.75045356E-02
  2.99265322E-03 -1.37033956E+00  1.94270516E+00 -5.16589703E-03 -1.37033956E+00
  1.94270516E+00 -5.16589703E-03 -1.37033956E+00  1.94270516E+00 -5.16589703E-03
 -1.37033956E+00  1.94270516E+00 -5.16589703E-03 -1.37033956E+00  1.94270516E+00
 -5.16589703E-03 -1.37033956E+00  1.94270516E+00 -5.16589703E-03  1.25970530E+00
  1.68981572E+00 -2.85949402E-03  1.25970530E+00  1.68981572E+00 -2.85949402E-03
  1.25970530E+00  1.68981572E+00 -2.85949402E-03  1.25970530E+00  1.68981572E+00
 -2.85949402E-03  1.25970530E+00  1.68981572E+00 -2.85949402E-03  1.25970530E+00
  1.68981572E+00 -2.85949402E-03  2.17437103E+00 -9.23015014E-01  9.82581857E-03
  2.17437103E+00 -9.23015014E-01  9.82581857E-03  2.17437103E+00 -9.23015014E-01
  9.82581857E-03  2.17437103E+00 -9.23015014E-01  9.82581857E-03  2.17437103E+00
 -9.23015014E-01  9.82581857E-03  2.17437103E+00 -9.23015014E-01  9.82581857E-03
  4.55864723E-01 -2.78430753E+00  1.78568131E-02  4.55864723E-01 -2.78430753E+00
  1.78568131E-02  4.55864723E-01 -2.78430753E+00  1.78568131E-02  4.55864723E-01
 -2.78430753E+00  1.78568131E-02  4.55864723E-01 -2.78430753E+00  1.78568131E-02
  4.55864723E-01 -2.78430753E+00  1.78568131E-02 -5.41173866E+00  4.25513356E-01
  2.57747332E-04 -5.41173866E+00  4.25513356E-01  2.57747332E-04 -5.41173866E+00
  4.25513356E-01  2.57747332E-04 -5.41173866E+00  4.25513356E-01  2.57747332E-04
 -5.41173866E+00  4.25513356E-01  2.57747332E-04 -5.41173866E+00  4.25513356E-01
  2.57747332E-04  2.60021955E+00  3.54448752E+00 -1.10186528E-02  2.60021955E+00
  3.54448752E+00 -1.10186528E-02  2.60021955E+00  3.54448752E+00 -1.10186528E-02
  2.60021955E+00  3.54448752E+00 -1.10186528E-02  2.60021955E+00  3.54448752E+00
 -1.10186528E-02  2.60021955E+00  3.54448752E+00 -1.10186528E-02 -3.35690977E+00
 -3.77717731E+00  2.09097788E-02 -3.35690977E+00 -3.77717731E+00  2.09097788E-02
 -3.35690977E+00 -3.77717731E+00  2.09097788E-02 -3.35690977E+00 -3.77717731E+00
  2.09097788E-02 -2.05129196E+00  3.72938377E+00 -1.38651093E-02 -2.05129196E+00
  3.72938377E+00 -1.38651093E-02 -2.05129196E+00  3.72938377E+00 -1.38651093E-02
 -2.05129196E+00  3.72938377E+00 -1.38651093E-02  4.96862542E+00 -1.34520110E+00
  1.30000094E-02  4.96862542E+00 -1.34520110E+00  1.30000094E-02  4.96862542E+00
 -1.34520110E+00  1.30000094E-02  4.96862542E+00 -1.34520110E+00  1.30000094E-02
  4.96862542E+00 -1.34520110E+00  1.30000094E-02  4.96862542E+00 -1.34520110E+00
  1.30000094E-02  9.71571758E-01 -4.74264611E+00 -2.73581949E-01  9.71571758E-01
 -4.74264611E+00 -2.73581949E-01  9.71571758E-01 -4.74264611E+00 -2.73581949E-01
  9.71571758E-01 -4.74264611E+00 -2.73581949E-01  5.41230964E+00 -3.35794451E+00
  2.26611220E-02  5.41230964E+00 -3.35794451E+00  2.26611220E-02  5.41230964E+00
 -3.35794451E+00  2.26611220E-02  5.41230964E+00 -3.35794451E+00  2.26611220E-02
  5.84046758E+00 -4.83330366E-01 -1.64635443E+00  5.84046758E+00 -4.83330366E-01
 -1.64635443E+00  5.84046758E+00 -4.83330366E-01 -1.64635443E+00  5.84046758E+00
 -4.83330366E-01 -1.64635443E+00  5.83906276E+00 -4.67745247E-01  1.66490919E+00
  5.83906276E+00 -4.67745247E-01  1.66490919E+00  5.83906276E+00 -4.67745247E-01
  1.66490919E+00  5.83906276E+00 -4.67745247E-01  1.66490919E+00
Num ILSW                                   I              100
ILSW                                       I   N=         100
           0           0           0           0           2           0
           0           0           0           0       20419          -1
           5           0           0           0           0           0
           0           0           0           0           0           0
           1           0           0           0           0           0
           0           0      100000           0          -1           0
           0           0           0           0           0           0
           0           0           0           1           0           0
           0 -2000000000           1           0           0           0
           0           0           4          52           0           0
           0           0          40           0           0           0
           0           0           0          15           0           1
           0           0           0           0           0           0
           0           0           0           0           0           0
           0           0           0           0           0           0
           0           0           0           0           0           0
           0           0           0           0
Num RLSW                                   I               52
RLSW                                       R   N=          52
  1.00000000E+00  1.00000000E+00  1.00000000E+00  8.10000000E-01  1.00000000E+00
  0.00000000E+00  3.30000000E-01  1.90000000E-01  0.00000000E+00  4.60000000E-01
  0.00000000E+00  3.30000000E-01  1.90000000E-01  0.00000000E+00  4.60000000E-01
  0.00000000E+00  0.00000000E+00  1.00000000E+00  0.00000000E+00  0.00000000E+00
  0.00000000E+00  0.00000000E+00  1.00000000E+00  0.00000000E+00  0.00000000E+00
  0.00000000E+00  0.00000000E+00  1.00000000E+00  0.00000000E+00  0.00000000E+00
  0.00000000E+00  0.00000000E+00  1.00000000E+00  0.00000000E+00  0.00000000E+00
  0.00000000E+00  0.00000000E+00  0.00000000E+00  1.00000000E+00  1.00000000E+00
  0.00000000E+00  1.00000000E+00  0.00000000E+00  0.00000000E+00  0.00000000E+00
  0.00000000E+00  0.00000000E+00  0.00000000E+00  0.00000000E+00  0.00000000E+00
  0.00000000E+00  0.00000000E+00
MxBond                                     I                4
NBond                                      I   N=          15
           3           3           3           3           3           3
           1           1           1           1           4           1
           1           1           1
IBond                                      I   N=          60
           2           6           9           0           1           3
           7           0           2           4          10           0
           3           5           8           0           4           6
          11           0           1           5          12           0
           2           0           0           0           4           0
           0           0           1           0           0           0
           3           0           0           0           5          13
          14          15           6           0           0           0
          11           0           0           0          11           0
           0           0          11           0           0           0
RBond                                      R   N=          60
  1.41000000E+00  1.00000000E+00  1.00000000E+00  0.00000000E+00  1.41000000E+00
  1.41000000E+00  2.00000000E+00  0.00000000E+00  1.41000000E+00  1.00000000E+00
  1.00000000E+00  0.00000000E+00  1.00000000E+00  1.00000000E+00  2.00000000E+00
  0.00000000E+00  1.00000000E+00  2.00000000E+00  1.00000000E+00  0.00000000E+00
  1.00000000E+00  2.00000000E+00  1.00000000E+00  0.00000000E+00  2.00000000E+00
  0.00000000E+00  0.00000000E+00  0.00000000E+00  2.00000000E+00  0.00000000E+00
  0.00000000E+00  0.00000000E+00  1.00000000E+00  0.00000000E+00  0.00000000E+00
  0.00000000E+00  1.00000000E+00  0.00000000E+00  0.00000000E+00  0.00000000E+00
  1.00000000E+00  1.00000000E+00  1.00000000E+00  1.00000000E+00  1.00000000E+00
  0.00000000E+00  0.00000000E+00  0.00000000E+00  1.00000000E+00  0.00000000E+00
  0.00000000E+00  0.00000000E+00  1.00000000E+00  0.00000000E+00  0.00000000E+00
  0.00000000E+00  1.00000000E+00  0.00000000E+00  0.00000000E+00  0.00000000E+00
Virial Ratio                               R      2.003053749974482E+00
SCF Energy                                 R     -4.540735433998018E+02
CIS Energy                                 R     -4.538853359586346E+02
Total Energy                               R     -4.538853359586346E+02
Post-SCF wavefunction norm                 R      1.000000000000000E+00
RMS Density                                R      7.957160172866144E-09
Job Status                                 I                1
Nuclear derivative order                   I                0
External E-field                           R   N=          35
  0.00000000E+00  0.00000000E+00  0.00000000E+00  0.00000000E+00  0.00000000E+00
  0.00000000E+00  0.00000000E+00  0.00000000E+00  0.00000000E+00  0.00000000E+00
  0.00000000E+00  0.00000000E+00  0.00000000E+00  0.00000000E+00  0.00000000E+00
  0.00000000E+00  0.00000000E+00  0.00000000E+00  0.00000000E+00  0.00000000E+00
  0.00000000E+00  0.00000000E+00  0.00000000E+00  0.00000000E+00  0.00000000E+00
  0.00000000E+00  0.00000000E+00  0.00000000E+00  0.00000000E+00  0.00000000E+00
  0.00000000E+00  0.00000000E+00  0.00000000E+00  0.00000000E+00  0.00000000E+00
IOpCl                                      I                0
IROHF                                      I                0
Alpha Orbital Energies                     R   N=         234
 -1.91849835E+01 -1.91840632E+01 -1.44622161E+01 -1.44487589E+01 -1.04094862E+01
 -1.03767137E+01 -1.03302116E+01 -1.02790345E+01 -1.02555050E+01 -1.17869177E+00
 -1.14637588E+00 -1.07588109E+00 -1.02250538E+00 -9.13980204E-01 -8.06416881E-01
 -7.68708158E-01 -7.51394842E-01 -6.55486085E-01 -6.51740852E-01 -6.02048238E-01
 -5.71925322E-01 -5.54317073E-01 -5.23684369E-01 -5.10866180E-01 -5.08689553E-01
 -4.83005628E-01 -4.79203809E-01 -4.65349809E-01 -4.36986824E-01 -3.76197559E-01
 -3.62689531E-01 -3.46878187E-01 -3.10767301E-01 -9.62303890E-03  9.39303097E-03
  3.50743886E-02  3.65651705E-02  4.53889743E-02  5.63641789E-02  6.18654284E-02
  7.29515694E-02  7.68015893E-02  8.71754145E-02  9.79686172E-02  1.00567988E-01
  1.07774901E-01  1.21618675E-01  1.37522917E-01  1.43892439E-01  1.48005630E-01
  1.54215146E-01  1.56809959E-01  1.69266944E-01  1.71334543E-01  1.86511861E-01
  1.88165147E-01  1.97195302E-01  2.08689908E-01  2.13927931E-01  2.29143769E-01
  2.37767111E-01  2.39958420E-01  2.41404169E-01  2.44777700E-01  2.53217971E-01
  2.59029689E-01  2.80344162E-01  2.89591924E-01  2.99617752E-01  3.02211990E-01
  3.04551838E-01  3.08238381E-01  3.26047827E-01  3.33753376E-01  3.48115169E-01
  3.50931619E-01  3.56007185E-01  3.71016741E-01  3.81033877E-01  3.95249928E-01
  4.14972481E-01  4.20646881E-01  4.35808461E-01  4.66600376E-01  4.77826709E-01
  5.20606369E-01  5.39870746E-01  5.58562229E-01  5.81083794E-01  5.91292070E-01
  6.00420013E-01  6.28498044E-01  6.30590900E-01  6.34220148E-01  6.57764605E-01
  6.61431708E-01  6.83679845E-01  7.00068643E-01  7.03846019E-01  7.19716314E-01
  7.40052259E-01  7.52619491E-01  7.76980762E-01  7.83101761E-01  8.18014965E-01
  8.40126202E-01  8.59802659E-01  8.62049507E-01  8.83095146E-01  9.01239309E-01
  9.10084459E-01  9.29182681E-01  9.68185364E-01  9.81947417E-01  9.96218934E-01
  1.05098643E+00  1.08025887E+00  1.08321011E+00  1.12319456E+00  1.16842337E+00
  1.17092947E+00  1.19980268E+00  1.20308252E+00  1.22014333E+00  1.23894711E+00
  1.24655439E+00  1.25143934E+00  1.25913895E+00  1.28962896E+00  1.29482195E+00
  1.33537741E+00  1.37746585E+00  1.40443095E+00  1.42888271E+00  1.48354982E+00
  1.52168144E+00  1.55342494E+00  1.58589195E+00  1.59677448E+00  1.61784691E+00
  1.63039059E+00  1.64000592E+00  1.67951885E+00  1.70381836E+00  1.71790160E+00