Thymine distortion                                                      
SP        RCAM-B3LYP TD-FC                                            6-311+G(d,p)        
Number of atoms                            I               15
Info1-9                                    I   N=           9
          24          24           0           0           0         110
           1         218        4001
Full Title                                 C   N=           2
Thymine distortion      
Route                                      C   N=           5
#p td=(nstates=10) cam-b3lyp/6-311+g(d,p) symm=loose        
Charge                                     I                0
Multiplicity                               I                1
Number of electrons                        I               66
Number of alpha electrons                  I               33
Number of beta electrons                   I               33
Number of basis functions                  I              234
Number of independent functions            I              234
Number of point charges in /Mol/           I                0
Number of translation vectors              I                0
Atomic numbers                             I   N=          15
           7           6           7           6           6           6
           8           8           1           1           6           1
           1           1           1
Nuclear charges                            R   N=          15
  7.00000000E+00  6.00000000E+00  7.00000000E+00  6.00000000E+00  6.00000000E+00
  6.00000000E+00  8.00000000E+00  8.00000000E+00  1.00000000E+00  1.00000000E+00
  6.00000000E+00  1.00000000E+00  1.00000000E+00  1.00000000E+00  1.00000000E+00
Current cartesian coordinates              R   N=          45
  2.11989573E+00 -2.32775515E+00 -7.41214234E-02  3.14802154E+00  6.73675125E-02
 -2.11599852E-02  1.34066864E+00  1.94510817E+00  1.91604047E-02 -1.28686143E+00
  1.66738962E+00  1.18671132E-02 -2.17672375E+00 -9.53384772E-01 -4.59759645E-02
 -4.40655205E-01 -2.79789901E+00 -8.56009454E-02  5.39626411E+00  4.66590111E-01
 -1.13781772E-02 -2.64489266E+00  3.50886411E+00  5.15991487E-02  3.38135670E+00
 -3.75440185E+00 -1.04806872E-01  2.00465827E+00  3.73774464E+00  5.87510727E-02
 -4.96685209E+00 -1.40190670E+00 -5.70871100E-02 -1.98680661E-01 -4.09809215E+00
  1.47546462E+00 -5.39144145E+00 -3.41829920E+00 -1.01471411E-01 -5.84695511E+00
 -5.77002933E-01  1.61663368E+00 -5.84543426E+00 -5.04453231E-01 -1.69387038E+00
Number of symbols in /Mol/                 I                0
Force Field                                I                0
Atom Types                                 C   N=          15
                                                            
                                                            
                                                            
Int Atom Types                             I   N=          15
           0           0           0           0           0           0
           0           0           0           0           0           0
           0           0           0
MM charges                                 R   N=          15
  0.00000000E+00  0.00000000E+00  0.00000000E+00  0.00000000E+00  0.00000000E+00
  0.00000000E+00  0.00000000E+00  0.00000000E+00  0.00000000E+00  0.00000000E+00
  0.00000000E+00  0.00000000E+00  0.00000000E+00  0.00000000E+00  0.00000000E+00
Integer atomic weights                     I   N=          15
          14          12          14          12          12          12
          16          16           1           1          12           1
           1           1           1
Real atomic weights                        R   N=          15
  1.40030740E+01  1.20000000E+01  1.40030740E+01  1.20000000E+01  1.20000000E+01
  1.20000000E+01  1.59949146E+01  1.59949146E+01  1.00782504E+00  1.00782504E+00
  1.20000000E+01  1.00782504E+00  1.00782504E+00  1.00782504E+00  1.00782504E+00
Atom fragment info                         I   N=          15
           0           0           0           0           0           0
           0           0           0           0           0           0
           0           0           0
Atom residue num                           I   N=          15
           0           0           0           0           0           0
           0           0           0           0           0           0
           0           0           0
Nuclear spins                              I   N=          15
           2           0           2           0           0           0
           0           0           1           1           0           1
           1           1           1
Nuclear ZEff                               R   N=          15
 -4.55000000E+00 -3.60000000E+00 -4.55000000E+00 -3.60000000E+00 -3.60000000E+00
 -3.60000000E+00 -5.60000000E+00 -5.60000000E+00 -1.00000000E+00 -1.00000000E+00
 -3.60000000E+00 -1.00000000E+00 -1.00000000E+00 -1.00000000E+00 -1.00000000E+00
Nuclear ZNuc                               R   N=          15
  7.00000000E+00  6.00000000E+00  7.00000000E+00  6.00000000E+00  6.00000000E+00
  6.00000000E+00  8.00000000E+00  8.00000000E+00  1.00000000E+00  1.00000000E+00
  6.00000000E+00  1.00000000E+00  1.00000000E+00  1.00000000E+00  1.00000000E+00
Nuclear QMom                               R   N=          15
  2.04400000E+00  0.00000000E+00  2.04400000E+00  0.00000000E+00  0.00000000E+00
  0.00000000E+00  0.00000000E+00  0.00000000E+00  0.00000000E+00  0.00000000E+00
  0.00000000E+00  0.00000000E+00  0.00000000E+00  0.00000000E+00  0.00000000E+00
Nuclear GFac                               R   N=          15
  4.03761000E-01  0.00000000E+00  4.03761000E-01  0.00000000E+00  0.00000000E+00
  0.00000000E+00  0.00000000E+00  0.00000000E+00  2.79284600E+00  2.79284600E+00
  0.00000000E+00  2.79284600E+00  2.79284600E+00  2.79284600E+00  2.79284600E+00
MicOpt                                     I   N=          15
          -1          -1          -1          -1          -1          -1
          -1          -1          -1          -1          -1          -1
          -1          -1          -1
Number of residues                         I                0
Number of secondary structures             I                0
SymInf integers                            I   N=          26
           1           1           1           1           1           0
           0           0           0           0           0           0
           0           0           0           0           0           0
           0           0           0           0           0           0
           0           0
RotTr to input orientation                 R   N=          12
  7.96152648E-01 -6.05095653E-01 -4.59290350E-04  6.04942454E-01  7.95967707E-01
 -2.19097384E-02  1.36230678E-02  1.71656520E-02  9.99759847E-01  1.57017066E-02
  1.65693449E-03  2.40767641E-02
Number of contracted shells                I               78
Number of primitive shells                 I              153
Pure/Cartesian d shells                    I                0
Pure/Cartesian f shells                    I                0
Highest angular momentum                   I                2
Largest degree of contraction              I                6
Shell types                                I   N=          78
           0          -1          -1          -1          -1          -2
           0          -1          -1          -1          -1          -2
           0          -1          -1          -1          -1          -2
           0          -1          -1          -1          -1          -2
           0          -1          -1          -1          -1          -2
           0          -1          -1          -1          -1          -2
           0          -1          -1          -1          -1          -2
           0          -1          -1          -1          -1          -2
           0           0           0           1           0           0
           0           1           0          -1          -1          -1
          -1          -2           0           0           0           1
           0           0           0           1           0           0
           0           1           0           0           0           1
Number of primitives per shell             I   N=          78
           6           3           1           1           1           1
           6           3           1           1           1           1
           6           3           1           1           1           1
           6           3           1           1           1           1
           6           3           1           1           1           1
           6           3           1           1           1           1
           6           3           1           1           1           1
           6           3           1           1           1           1
           3           1           1           1           3           1
           1           1           6           3           1           1
           1           1           3           1           1           1
           3           1           1           1           3           1
           1           1           3           1           1           1
Shell to atom map                          I   N=          78
           1           1           1           1           1           1
           2           2           2           2           2           2
           3           3           3           3           3           3
           4           4           4           4           4           4
           5           5           5           5           5           5
           6           6           6           6           6           6
           7           7           7           7           7           7
           8           8           8           8           8           8
           9           9           9           9          10          10
          10          10          11          11          11          11
          11          11          12          12          12          12
          13          13          13          13          14          14
          14          14          15          15          15          15
Primitive exponents                        R   N=         153
  6.29348000E+03  9.49044000E+02  2.18776000E+02  6.36916000E+01  1.88282000E+01
  2.72023000E+00  3.06331000E+01  7.02614000E+00  2.11205000E+00  6.84009000E-01
  2.00878000E-01  6.39000000E-02  9.13000000E-01  4.56324000E+03  6.82024000E+02
  1.54973000E+02  4.44553000E+01  1.30290000E+01  1.82773000E+00  2.09642000E+01
  4.80331000E+00  1.45933000E+00  4.83456000E-01  1.45585000E-01  4.38000000E-02
  6.26000000E-01  6.29348000E+03  9.49044000E+02  2.18776000E+02  6.36916000E+01
  1.88282000E+01  2.72023000E+00  3.06331000E+01  7.02614000E+00  2.11205000E+00
  6.84009000E-01  2.00878000E-01  6.39000000E-02  9.13000000E-01  4.56324000E+03
  6.82024000E+02  1.54973000E+02  4.44553000E+01  1.30290000E+01  1.82773000E+00
  2.09642000E+01  4.80331000E+00  1.45933000E+00  4.83456000E-01  1.45585000E-01
  4.38000000E-02  6.26000000E-01  4.56324000E+03  6.82024000E+02  1.54973000E+02
  4.44553000E+01  1.30290000E+01  1.82773000E+00  2.09642000E+01  4.80331000E+00
  1.45933000E+00  4.83456000E-01  1.45585000E-01  4.38000000E-02  6.26000000E-01
  4.56324000E+03  6.82024000E+02  1.54973000E+02  4.44553000E+01  1.30290000E+01
  1.82773000E+00  2.09642000E+01  4.80331000E+00  1.45933000E+00  4.83456000E-01
  1.45585000E-01  4.38000000E-02  6.26000000E-01  8.58850000E+03  1.29723000E+03
  2.99296000E+02  8.73771000E+01  2.56789000E+01  3.74004000E+00  4.21175000E+01
  9.62837000E+00  2.85332000E+00  9.05661000E-01  2.55611000E-01  8.45000000E-02
  1.29200000E+00  8.58850000E+03  1.29723000E+03  2.99296000E+02  8.73771000E+01
  2.56789000E+01  3.74004000E+00  4.21175000E+01  9.62837000E+00  2.85332000E+00
  9.05661000E-01  2.55611000E-01  8.45000000E-02  1.29200000E+00  3.38650000E+01
  5.09479000E+00  1.15879000E+00  3.25840000E-01  1.02741000E-01  7.50000000E-01
  3.38650000E+01  5.09479000E+00  1.15879000E+00  3.25840000E-01  1.02741000E-01
  7.50000000E-01  4.56324000E+03  6.82024000E+02  1.54973000E+02  4.44553000E+01
  1.30290000E+01  1.82773000E+00  2.09642000E+01  4.80331000E+00  1.45933000E+00
  4.83456000E-01  1.45585000E-01  4.38000000E-02  6.26000000E-01  3.38650000E+01
  5.09479000E+00  1.15879000E+00  3.25840000E-01  1.02741000E-01  7.50000000E-01
  3.38650000E+01  5.09479000E+00  1.15879000E+00  3.25840000E-01  1.02741000E-01
  7.50000000E-01  3.38650000E+01  5.09479000E+00  1.15879000E+00  3.25840000E-01
  1.02741000E-01  7.50000000E-01  3.38650000E+01  5.09479000E+00  1.15879000E+00
  3.25840000E-01  1.02741000E-01  7.50000000E-01
Contraction coefficients                   R   N=         153
  1.96978815E-03  1.49612859E-02  7.35005308E-02  2.48936766E-01  6.02459433E-01
  2.56201759E-01  1.11906080E-01  9.21666655E-01 -2.56919183E-03  1.00000000E+00
  1.00000000E+00  1.00000000E+00  1.00000000E+00  1.96665025E-03  1.52306019E-02
  7.61269097E-02  2.60801033E-01  6.16462078E-01  2.21006028E-01  1.14660081E-01
  9.19999648E-01 -3.03068213E-03  1.00000000E+00  1.00000000E+00  1.00000000E+00
  1.00000000E+00  1.96978815E-03  1.49612859E-02  7.35005308E-02  2.48936766E-01
  6.02459433E-01  2.56201759E-01  1.11906080E-01  9.21666655E-01 -2.56919183E-03
  1.00000000E+00  1.00000000E+00  1.00000000E+00  1.00000000E+00  1.96665025E-03
  1.52306019E-02  7.61269097E-02  2.60801033E-01  6.16462078E-01  2.21006028E-01
  1.14660081E-01  9.19999648E-01 -3.03068213E-03  1.00000000E+00  1.00000000E+00
  1.00000000E+00  1.00000000E+00  1.96665025E-03  1.52306019E-02  7.61269097E-02
  2.60801033E-01  6.16462078E-01  2.21006028E-01  1.14660081E-01  9.19999648E-01
 -3.03068213E-03  1.00000000E+00  1.00000000E+00  1.00000000E+00  1.00000000E+00
  1.96665025E-03  1.52306019E-02  7.61269097E-02  2.60801033E-01  6.16462078E-01
  2.21006028E-01  1.14660081E-01  9.19999648E-01 -3.03068213E-03  1.00000000E+00
  1.00000000E+00  1.00000000E+00  1.00000000E+00  1.89515008E-03  1.43859006E-02
  7.07320031E-02  2.40001011E-01  5.94797026E-01  2.80802012E-01  1.13889012E-01
  9.20811101E-01 -3.27447036E-03  1.00000000E+00  1.00000000E+00  1.00000000E+00
  1.00000000E+00  1.89515008E-03  1.43859006E-02  7.07320031E-02  2.40001011E-01
  5.94797026E-01  2.80802012E-01  1.13889012E-01  9.20811101E-01 -3.27447036E-03
  1.00000000E+00  1.00000000E+00  1.00000000E+00  1.00000000E+00  2.54938145E-02
  1.90373109E-01  8.52161486E-01  1.00000000E+00  1.00000000E+00  1.00000000E+00
  2.54938145E-02  1.90373109E-01  8.52161486E-01  1.00000000E+00  1.00000000E+00
  1.00000000E+00  1.96665025E-03  1.52306019E-02  7.61269097E-02  2.60801033E-01
  6.16462078E-01  2.21006028E-01  1.14660081E-01  9.19999648E-01 -3.03068213E-03
  1.00000000E+00  1.00000000E+00  1.00000000E+00  1.00000000E+00  2.54938145E-02
  1.90373109E-01  8.52161486E-01  1.00000000E+00  1.00000000E+00  1.00000000E+00
  2.54938145E-02  1.90373109E-01  8.52161486E-01  1.00000000E+00  1.00000000E+00
  1.00000000E+00  2.54938145E-02  1.90373109E-01  8.52161486E-01  1.00000000E+00
  1.00000000E+00  1.00000000E+00  2.54938145E-02  1.90373109E-01  8.52161486E-01
  1.00000000E+00  1.00000000E+00  1.00000000E+00
P(S=P) Contraction coefficients            R   N=         153
  0.00000000E+00  0.00000000E+00  0.00000000E+00  0.00000000E+00  0.00000000E+00
  0.00000000E+00  3.83119186E-02  2.37403116E-01  8.17592398E-01  1.00000000E+00
  1.00000000E+00  1.00000000E+00  0.00000000E+00  0.00000000E+00  0.00000000E+00
  0.00000000E+00  0.00000000E+00  0.00000000E+00  0.00000000E+00  4.02486927E-02
  2.37593957E-01  8.15853851E-01  1.00000000E+00  1.00000000E+00  1.00000000E+00
  0.00000000E+00  0.00000000E+00  0.00000000E+00  0.00000000E+00  0.00000000E+00
  0.00000000E+00  0.00000000E+00  3.83119186E-02  2.37403116E-01  8.17592398E-01
  1.00000000E+00  1.00000000E+00  1.00000000E+00  0.00000000E+00  0.00000000E+00
  0.00000000E+00  0.00000000E+00  0.00000000E+00  0.00000000E+00  0.00000000E+00
  4.02486927E-02  2.37593957E-01  8.15853851E-01  1.00000000E+00  1.00000000E+00
  1.00000000E+00  0.00000000E+00  0.00000000E+00  0.00000000E+00  0.00000000E+00
  0.00000000E+00  0.00000000E+00  0.00000000E+00  4.02486927E-02  2.37593957E-01
  8.15853851E-01  1.00000000E+00  1.00000000E+00  1.00000000E+00  0.00000000E+00
  0.00000000E+00  0.00000000E+00  0.00000000E+00  0.00000000E+00  0.00000000E+00
  0.00000000E+00  4.02486927E-02  2.37593957E-01  8.15853851E-01  1.00000000E+00
  1.00000000E+00  1.00000000E+00  0.00000000E+00  0.00000000E+00  0.00000000E+00
  0.00000000E+00  0.00000000E+00  0.00000000E+00  0.00000000E+00  3.65113974E-02
  2.37152983E-01  8.19701941E-01  1.00000000E+00  1.00000000E+00  1.00000000E+00
  0.00000000E+00  0.00000000E+00  0.00000000E+00  0.00000000E+00  0.00000000E+00
  0.00000000E+00  0.00000000E+00  3.65113974E-02  2.37152983E-01  8.19701941E-01
  1.00000000E+00  1.00000000E+00  1.00000000E+00  0.00000000E+00  0.00000000E+00
  0.00000000E+00  0.00000000E+00  0.00000000E+00  0.00000000E+00  0.00000000E+00
  0.00000000E+00  0.00000000E+00  0.00000000E+00  0.00000000E+00  0.00000000E+00
  0.00000000E+00  0.00000000E+00  0.00000000E+00  0.00000000E+00  0.00000000E+00
  0.00000000E+00  0.00000000E+00  4.02486927E-02  2.37593957E-01  8.15853851E-01
  1.00000000E+00  1.00000000E+00  1.00000000E+00  0.00000000E+00  0.00000000E+00
  0.00000000E+00  0.00000000E+00  0.00000000E+00  0.00000000E+00  0.00000000E+00
  0.00000000E+00  0.00000000E+00  0.00000000E+00  0.00000000E+00  0.00000000E+00
  0.00000000E+00  0.00000000E+00  0.00000000E+00  0.00000000E+00  0.00000000E+00
  0.00000000E+00  0.00000000E+00  0.00000000E+00  0.00000000E+00  0.00000000E+00
  0.00000000E+00  0.00000000E+00  0.00000000E+00
Coordinates of each shell                  R   N=         234
  2.11989573E+00 -2.32775515E+00 -7.41214234E-02  2.11989573E+00 -2.32775515E+00
 -7.41214234E-02  2.11989573E+00 -2.32775515E+00 -7.41214234E-02  2.11989573E+00
 -2.32775515E+00 -7.41214234E-02  2.11989573E+00 -2.32775515E+00 -7.41214234E-02
  2.11989573E+00 -2.32775515E+00 -7.41214234E-02  3.14802154E+00  6.73675125E-02
 -2.11599852E-02  3.14802154E+00  6.73675125E-02 -2.11599852E-02  3.14802154E+00
  6.73675125E-02 -2.11599852E-02  3.14802154E+00  6.73675125E-02 -2.11599852E-02
  3.14802154E+00  6.73675125E-02 -2.11599852E-02  3.14802154E+00  6.73675125E-02
 -2.11599852E-02  1.34066864E+00  1.94510817E+00  1.91604047E-02  1.34066864E+00
  1.94510817E+00  1.91604047E-02  1.34066864E+00  1.94510817E+00  1.91604047E-02
  1.34066864E+00  1.94510817E+00  1.91604047E-02  1.34066864E+00  1.94510817E+00
  1.91604047E-02  1.34066864E+00  1.94510817E+00  1.91604047E-02 -1.28686143E+00
  1.66738962E+00  1.18671132E-02 -1.28686143E+00  1.66738962E+00  1.18671132E-02
 -1.28686143E+00  1.66738962E+00  1.18671132E-02 -1.28686143E+00  1.66738962E+00
  1.18671132E-02 -1.28686143E+00  1.66738962E+00  1.18671132E-02 -1.28686143E+00
  1.66738962E+00  1.18671132E-02 -2.17672375E+00 -9.53384772E-01 -4.59759645E-02
 -2.17672375E+00 -9.53384772E-01 -4.59759645E-02 -2.17672375E+00 -9.53384772E-01
 -4.59759645E-02 -2.17672375E+00 -9.53384772E-01 -4.59759645E-02 -2.17672375E+00
 -9.53384772E-01 -4.59759645E-02 -2.17672375E+00 -9.53384772E-01 -4.59759645E-02
 -4.40655205E-01 -2.79789901E+00 -8.56009454E-02 -4.40655205E-01 -2.79789901E+00
 -8.56009454E-02 -4.40655205E-01 -2.79789901E+00 -8.56009454E-02 -4.40655205E-01
 -2.79789901E+00 -8.56009454E-02 -4.40655205E-01 -2.79789901E+00 -8.56009454E-02
 -4.40655205E-01 -2.79789901E+00 -8.56009454E-02  5.39626411E+00  4.66590111E-01
 -1.13781772E-02  5.39626411E+00  4.66590111E-01 -1.13781772E-02  5.39626411E+00
  4.66590111E-01 -1.13781772E-02  5.39626411E+00  4.66590111E-01 -1.13781772E-02
  5.39626411E+00  4.66590111E-01 -1.13781772E-02  5.39626411E+00  4.66590111E-01
 -1.13781772E-02 -2.64489266E+00  3.50886411E+00  5.15991487E-02 -2.64489266E+00
  3.50886411E+00  5.15991487E-02 -2.64489266E+00  3.50886411E+00  5.15991487E-02
 -2.64489266E+00  3.50886411E+00  5.15991487E-02 -2.64489266E+00  3.50886411E+00
  5.15991487E-02 -2.64489266E+00  3.50886411E+00  5.15991487E-02  3.38135670E+00
 -3.75440185E+00 -1.04806872E-01  3.38135670E+00 -3.75440185E+00 -1.04806872E-01
  3.38135670E+00 -3.75440185E+00 -1.04806872E-01  3.38135670E+00 -3.75440185E+00
 -1.04806872E-01  2.00465827E+00  3.73774464E+00  5.87510727E-02  2.00465827E+00
  3.73774464E+00  5.87510727E-02  2.00465827E+00  3.73774464E+00  5.87510727E-02
  2.00465827E+00  3.73774464E+00  5.87510727E-02 -4.96685209E+00 -1.40190670E+00
 -5.70871100E-02 -4.96685209E+00 -1.40190670E+00 -5.70871100E-02 -4.96685209E+00
 -1.40190670E+00 -5.70871100E-02 -4.96685209E+00 -1.40190670E+00 -5.70871100E-02
 -4.96685209E+00 -1.40190670E+00 -5.70871100E-02 -4.96685209E+00 -1.40190670E+00
 -5.70871100E-02 -1.98680661E-01 -4.09809215E+00  1.47546462E+00 -1.98680661E-01
 -4.09809215E+00  1.47546462E+00 -1.98680661E-01 -4.09809215E+00  1.47546462E+00
 -1.98680661E-01 -4.09809215E+00  1.47546462E+00 -5.39144145E+00 -3.41829920E+00
 -1.01471411E-01 -5.39144145E+00 -3.41829920E+00 -1.01471411E-01 -5.39144145E+00
 -3.41829920E+00 -1.01471411E-01 -5.39144145E+00 -3.41829920E+00 -1.01471411E-01
 -5.84695511E+00 -5.77002933E-01  1.61663368E+00 -5.84695511E+00 -5.77002933E-01
  1.61663368E+00 -5.84695511E+00 -5.77002933E-01  1.61663368E+00 -5.84695511E+00
 -5.77002933E-01  1.61663368E+00 -5.84543426E+00 -5.04453231E-01 -1.69387038E+00
 -5.84543426E+00 -5.04453231E-01 -1.69387038E+00 -5.84543426E+00 -5.04453231E-01
 -1.69387038E+00 -5.84543426E+00 -5.04453231E-01 -1.69387038E+00
Num ILSW                                   I              100
ILSW                                       I   N=         100
           0           0           0           0           2           0
           0           0           0           0       20419          -1
           5           0           0           0           0           0
           0           0           0           0           0           0
           1           0           0           0           0           0
           0           0      100000           0          -1           0
           0           0           0           0           0           0
           0           0           0           1           0           0
           0 -2000000000           1           0           0           0
           0           0           4          52           0           0
           0           0          40           0           0           0
           0           0           0          15           0           1
           0           0           0           0           0           0
           0           0           0           0           0           0
           0           0           0           0           0           0
           0           0           0           0           0           0
           0           0           0           0
Num RLSW                                   I               52
RLSW                                       R   N=          52
  1.00000000E+00  1.00000000E+00  1.00000000E+00  8.10000000E-01  1.00000000E+00
  0.00000000E+00  3.30000000E-01  1.90000000E-01  0.00000000E+00  4.60000000E-01
  0.00000000E+00  3.30000000E-01  1.90000000E-01  0.00000000E+00  4.60000000E-01
  0.00000000E+00  0.00000000E+00  1.00000000E+00  0.00000000E+00  0.00000000E+00
  0.00000000E+00  0.00000000E+00  1.00000000E+00  0.00000000E+00  0.00000000E+00
  0.00000000E+00  0.00000000E+00  1.00000000E+00  0.00000000E+00  0.00000000E+00
  0.00000000E+00  0.00000000E+00  1.00000000E+00  0.00000000E+00  0.00000000E+00
  0.00000000E+00  0.00000000E+00  0.00000000E+00  1.00000000E+00  1.00000000E+00
  0.00000000E+00  1.00000000E+00  0.00000000E+00  0.00000000E+00  0.00000000E+00
  0.00000000E+00  0.00000000E+00  0.00000000E+00  0.00000000E+00  0.00000000E+00
  0.00000000E+00  0.00000000E+00
MxBond                                     I                4
NBond                                      I   N=          15
           3           3           3           3           3           3
           1           1           1           1           4           1
           1           1           1
IBond                                      I   N=          60
           2           6           9           0           1           3
           7           0           2           4          10           0
           3           5           8           0           4           6
          11           0           1           5          12           0
           2           0           0           0           4           0
           0           0           1           0           0           0
           3           0           0           0           5          13
          14          15           6           0           0           0
          11           0           0           0          11           0
           0           0          11           0           0           0
RBond                                      R   N=          60
  1.41000000E+00  1.00000000E+00  1.00000000E+00  0.00000000E+00  1.41000000E+00
  1.41000000E+00  2.00000000E+00  0.00000000E+00  1.41000000E+00  1.00000000E+00
  1.00000000E+00  0.00000000E+00  1.00000000E+00  1.00000000E+00  2.00000000E+00
  0.00000000E+00  1.00000000E+00  2.00000000E+00  1.00000000E+00  0.00000000E+00
  1.00000000E+00  2.00000000E+00  1.00000000E+00  0.00000000E+00  2.00000000E+00
  0.00000000E+00  0.00000000E+00  0.00000000E+00  2.00000000E+00  0.00000000E+00
  0.00000000E+00  0.00000000E+00  1.00000000E+00  0.00000000E+00  0.00000000E+00
  0.00000000E+00  1.00000000E+00  0.00000000E+00  0.00000000E+00  0.00000000E+00
  1.00000000E+00  1.00000000E+00  1.00000000E+00  1.00000000E+00  1.00000000E+00
  0.00000000E+00  0.00000000E+00  0.00000000E+00  1.00000000E+00  0.00000000E+00
  0.00000000E+00  0.00000000E+00  1.00000000E+00  0.00000000E+00  0.00000000E+00
  0.00000000E+00  1.00000000E+00  0.00000000E+00  0.00000000E+00  0.00000000E+00
Virial Ratio                               R      2.002707800053599E+00
SCF Energy                                 R     -4.540143091445759E+02
CIS Energy                                 R     -4.538527546273127E+02
Total Energy                               R     -4.538527546273127E+02
Post-SCF wavefunction norm                 R      1.000000000000000E+00
RMS Density                                R      3.577956301375002E-09
Job Status                                 I                1
Nuclear derivative order                   I                0
External E-field                           R   N=          35
  0.00000000E+00  0.00000000E+00  0.00000000E+00  0.00000000E+00  0.00000000E+00
  0.00000000E+00  0.00000000E+00  0.00000000E+00  0.00000000E+00  0.00000000E+00
  0.00000000E+00  0.00000000E+00  0.00000000E+00  0.00000000E+00  0.00000000E+00
  0.00000000E+00  0.00000000E+00  0.00000000E+00  0.00000000E+00  0.00000000E+00
  0.00000000E+00  0.00000000E+00  0.00000000E+00  0.00000000E+00  0.00000000E+00
  0.00000000E+00  0.00000000E+00  0.00000000E+00  0.00000000E+00  0.00000000E+00
  0.00000000E+00  0.00000000E+00  0.00000000E+00  0.00000000E+00  0.00000000E+00
IOpCl                                      I                0
IROHF                                      I                0
Alpha Orbital Energies                     R   N=         234
 -1.91893317E+01 -1.91841369E+01 -1.44569186E+01 -1.44518396E+01 -1.04069157E+01
 -1.03814070E+01 -1.03197445E+01 -1.02903900E+01 -1.02582343E+01 -1.17929676E+00
 -1.15003722E+00 -1.07833655E+00 -1.02566404E+00 -9.16362959E-01 -8.11533571E-01
 -7.71762934E-01 -7.52673688E-01 -6.56465934E-01 -6.52369203E-01 -5.95871872E-01
 -5.79791383E-01 -5.45524050E-01 -5.20771293E-01 -5.16550693E-01 -5.11689053E-01
 -4.88816458E-01 -4.75145911E-01 -4.67483413E-01 -4.19793077E-01 -3.68020452E-01
 -3.65179957E-01 -3.50469929E-01 -3.12932135E-01 -4.13065241E-02  1.19069732E-02
  3.57262491E-02  3.87542797E-02  4.16778616E-02  5.21415840E-02  6.65927016E-02
  7.13613643E-02  7.63309169E-02  8.60530496E-02  9.08037968E-02  1.01160611E-01
  1.08453897E-01  1.22549848E-01  1.31158573E-01  1.40989647E-01  1.46696853E-01
  1.50120566E-01  1.57115535E-01  1.66179339E-01  1.76281053E-01  1.83469691E-01
  1.87192244E-01  1.96604473E-01  2.07733561E-01  2.21099362E-01  2.30044581E-01
  2.31781540E-01  2.36208497E-01  2.38935563E-01  2.45162685E-01  2.51391828E-01
  2.66686151E-01  2.68780171E-01  2.87980786E-01  2.98040378E-01  3.03161409E-01
  3.05305072E-01  3.12801914E-01  3.23954712E-01  3.34356312E-01  3.47023742E-01
  3.49400933E-01  3.56576849E-01  3.70206277E-01  3.75717477E-01  3.92191572E-01
  4.10748064E-01  4.21995073E-01  4.39172019E-01  4.74266209E-01  4.77970103E-01
  5.15820901E-01  5.21727513E-01  5.44009975E-01  5.68078238E-01  5.81052531E-01
  5.87633819E-01  6.13717881E-01  6.25832396E-01  6.40783740E-01  6.59446566E-01
  6.61397644E-01  6.87218329E-01  6.97389230E-01  7.06652671E-01  7.10737855E-01
  7.26520071E-01  7.40208821E-01  7.64186062E-01  7.74714682E-01  7.96999343E-01
  8.39000050E-01  8.49088480E-01  8.57586218E-01  8.73140656E-01  8.98810065E-01
  9.02303248E-01  9.26180377E-01  9.63553633E-01  9.74064771E-01  9.94887150E-01
  1.05508339E+00  1.06766089E+00  1.09716544E+00  1.12392669E+00  1.16673800E+00
  1.16754825E+00  1.19910199E+00  1.19964701E+00  1.23618310E+00  1.24526323E+00
  1.24663144E+00  1.25510188E+00  1.27292886E+00  1.28870575E+00  1.31548071E+00
  1.32083337E+00  1.37021342E+00  1.39940577E+00  1.45508349E+00  1.48348659E+00
  1.51133696E+00  1.52194092E+00  1.57019962E+00  1.59095078E+00  1.61527997E+00
  1.62288417E+00  1.66073161E+00  1.67684339E+00  1.70068450E+00  1.72944767E+00